# Fe(OH)3  example -> 3:47

162 atoms
3 atom types

-7.4000 6.500 xlo xhi
-6.6000 8.000 ylo yhi
-6.300 6.800 zlo zhi

Masses

1 1.0080
2 15.9994
3 55.8450 

Atoms

 1  2 0.0    0.0272634152  2.4683356657  5.9729547797
 2  1 0.0    0.3382307309  3.2119124322  6.5639014109
 3  1 0.0    0.3604959194  2.6201618333  5.0429946123
 4  2 0.0   -2.8570961805  4.5169517323 -3.7516852232
 5  1 0.0   -2.2825267322  5.3119367730 -3.5536548617
 6  1 0.0   -2.3554218206  3.6798339122 -3.5322418320
 7  2 0.0   -3.3464695890 -0.4681899038  2.1594613149
 8  1 0.0   -3.6562902713 -0.2371132336  1.2367459486
 9  1 0.0   -3.0534457042 -1.4244942893  2.1817084539
 10  2 0.0   -4.0781985896  3.2413286259  0.5308115529
 11  1 0.0   -3.1411305678  3.2788823801  0.8770272054
 12  1 0.0   -4.3496398715  4.1465271708  0.2038983766
 13  2 0.0   -1.9365643651  0.5076530880 -3.9315728481
 14  1 0.0   -1.4424189883  1.3083105792 -3.5940880065
 15  1 0.0   -2.4304051972  0.0771780760 -3.1757521838
 16  2 0.0   -0.5788762146  0.1209859786  1.3279165456
 17  1 0.0   -0.1963989154 -0.7279631377  0.9630935839
 18  1 0.0   -1.3719557523 -0.0896692477  1.8985503883
 19  2 0.0   -0.6815630313 -1.9150996810 -2.4572243572
 20  1 0.0   -0.2770300366 -1.0006902340 -2.4708654524
 21  1 0.0   -1.6784904234 -1.8389445893 -2.4743049551
 22  2 0.0    1.4288107107  0.5934876791  3.1545750669
 23  1 0.0    0.6519664228  0.7484114187  2.5447475606
 24  1 0.0    1.7555420537 -0.3452006305  3.0463528564
 25  2 0.0    0.1148436725 -2.5481525193  0.1283475826
 26  1 0.0   -0.4692552555 -3.1445603183  0.6787686210
 27  1 0.0   -0.3065528907 -2.4033751769 -0.7673857748
 28  2 0.0    0.1977585558 -3.6920244228  3.6480775255
 29  1 0.0    0.2595754456 -3.8787024825  4.6288426320
 30  1 0.0    0.8616053545 -2.9859795242  3.4014132211
 31  2 0.0   -5.1337111868 -2.1375698921 -3.1522872226
 32  1 0.0   -5.6557580411 -2.9903776730 -3.1504925410
 33  1 0.0   -5.4847104301 -1.5332203990 -3.8672334243
 34  2 0.0    2.8040836210 -5.0389269770  1.4352745510
 35  1 0.0    1.8503207596 -5.3382091180  1.4684615130
 36  1 0.0    2.8615133851 -4.1628284696  0.9561096655
 37  2 0.0    4.9856607391  1.2067715237 -1.9520673341
 38  1 0.0    5.6335153099  1.7825309756 -1.4542178904
 39  1 0.0    4.3926309694  0.7324287697 -1.3014878969
 40  2 0.0   -1.8645940920  0.3556588669  5.9249948368
 41  1 0.0   -1.4046395333  1.2423001069  5.8804347034
 42  1 0.0   -1.4225895419 -0.2150655160  6.6170343562
 43  2 0.0   -3.1735274209 -0.7604021814 -1.8573733296
 44  1 0.0   -3.6010342241 -0.2008792011 -1.1478216840
 45  1 0.0   -3.8815352645 -1.2413527370 -2.3743974165
 46  2 0.0    0.3325175971  5.4438117265  1.6719810415
 47  1 0.0   -0.6444725245  5.2896343076  1.8175098214
 48  1 0.0    0.5787931910  6.3562108878  1.9973886358
 49  2 0.0    4.5357546168  1.6761187789 -4.5804916844
 50  1 0.0    4.2597931938  0.8156689640 -5.0074698795
 51  1 0.0    4.7869069734  1.5106169108 -3.6269983570
 52  2 0.0    2.6338860578  2.4542837227 -1.5466830575
 53  1 0.0    1.8819705635  1.8030832920 -1.6493267537
 54  1 0.0    3.3961500278  2.1781695645 -2.1320765420
 55  2 0.0    2.7831813270 -2.6361288719  0.3019219269
 56  1 0.0    1.8011879701 -2.5339514865  0.1452514482
 57  1 0.0    3.2702765100 -2.5519749477 -0.5673802356
 58  2 0.0   -0.7766938802  2.7892461442 -2.7223616201
 59  1 0.0   -0.3199503261  3.5185061755 -3.2309395813
 60  1 0.0   -0.6417069919  2.9313275603 -1.7417322043
 61  2 0.0   -2.1289657567 -2.9077739374  2.5649092791
 62  1 0.0   -1.3725536641 -3.2596703296  3.1158550435
 63  1 0.0   -2.8733395882 -3.5754747455  2.5556254291
 64  2 0.0   -0.7146839806 -5.6402186515 -1.1092302925
 65  1 0.0   -0.5288284974 -5.6516598375 -0.1267229243
 66  1 0.0   -1.4214360720 -4.9608739807 -1.3067500121
 67  2 0.0    2.1762336837 -2.0072953368  3.0057574144
 68  1 0.0    2.5382835742 -2.3134331783  2.1252520205
 69  1 0.0    2.9096286169 -2.0058005105  3.6854976937
 70  2 0.0    2.5121425407  3.8467309986  0.6809829319
 71  1 0.0    1.6106500190  4.1970329605  0.9358491101
 72  1 0.0    2.4272174506  3.2645195481 -0.1268100899
 73  2 0.0   -1.8761110151  3.9981424113  2.0608189053
 74  1 0.0   -1.6060416018  3.2186733400  2.6255980469
 75  1 0.0   -2.7989666783  4.2881168236  2.3113029671
 76  2 0.0    3.1822825780 -5.9363466445 -1.1585835387
 77  1 0.0    2.8885564546 -5.0500454026 -1.5170334836
 78  1 0.0    3.7152332766 -5.7985515602 -0.3235854143
 79  2 0.0   -0.0076450573 -5.5124631002  1.6849556068
 80  1 0.0   -0.1519308332 -6.4714355675  1.9287776360
 81  1 0.0   -0.1617241522 -4.9372089302  2.4883434288
 82  2 0.0    0.4802721122  5.0640743330 -3.7793058455
 83  1 0.0    0.7963485861  4.8607864730 -4.7060105497
 84  1 0.0    1.1830592891  4.7934429354 -3.1210423796
 85  2 0.0   -4.6321415690  0.6218350908 -0.0785769893
 86  1 0.0   -5.4975146830  0.5934145884 -0.5786030572
 87  1 0.0   -4.3920972002  1.5723575076  0.1185446384
 88  2 0.0   -6.5687775585  2.0453411937 -1.9933153263
 89  1 0.0   -5.8731663177  2.6621467421 -2.3606055756
 90  1 0.0   -7.2960599533  2.5813597100 -1.5639216626
 91  2 0.0    4.5244763103 -1.0900684322 -3.7934892683
 92  1 0.0    5.1413317845 -1.1798371101 -4.5753366693
 93  1 0.0    5.0517222797 -0.8484954209 -2.9788915836
 94  2 0.0    1.1224048474 -0.8297589018  6.0128675251
 95  1 0.0    1.3334845405 -0.0676939862  6.6239114496
 96  1 0.0    1.4706561299 -0.6285759504  5.0968681669
 97  2 0.0    1.5847577542  1.6507684429 -4.9884710067
 98  1 0.0    1.0481581563  2.2966253922 -5.5319102421
 99  1 0.0    2.5359745274  1.9565439197 -4.9512889129
 100  2 0.0   -3.0788798032 -3.9214045015 -0.8016611291
 101  1 0.0   -2.9810046079 -2.9265347817 -0.8213717011
 102  1 0.0   -4.0493310807 -4.1613693469 -0.8025102539
 103  2 0.0    3.5539291050 -3.2635096596 -2.2212077626
 104  1 0.0    3.2732429880 -3.9598708657 -2.8816643201
 105  1 0.0    3.8534466817 -2.4430417444 -2.7087701599
 106  2 0.0   -4.1169253969 -4.8296953286  2.2715741041
 107  1 0.0   -5.1009797710 -4.8635340698  2.0982106468
 108  1 0.0   -3.6683867728 -5.5846114004  1.7920895190
 109  2 0.0   -0.5227931111  2.6838866559 -0.0967669470
 110  1 0.0   -0.8202254573  3.3661846587  0.5709977457
 111  1 0.0   -0.3992074964  1.8021022313  0.3592265557
 112  2 0.0    0.9644833875 -2.8998646327 -4.5002932810
 113  1 0.0    0.2778527251 -2.4983559561 -3.8942269265
 114  1 0.0    1.5942381212 -2.1868288376 -4.8094000266
 115  2 0.0    3.8653608039  2.4530107307  2.7642765734
 116  1 0.0    3.7201931377  3.0783849380  1.9967122833
 117  1 0.0    3.2463490300  1.6718128771  2.6788813893
 118  2 0.0   -1.6379286209 -1.4649648427 -5.8747415417
 119  1 0.0   -2.5707087851 -1.6466617070 -6.1858831570
 120  1 0.0   -1.6424775837 -0.6901948412 -5.2429225473
 121  2 0.0   -5.7482694892  0.3077255368  3.7958198662
 122  1 0.0   -5.6239718835  1.1629758859  4.2983749236
 123  1 0.0   -4.9958423730  0.1897644850  3.1470453021
 124  2 0.0    1.4215708189  3.5683242930  4.0395500409
 125  1 0.0    1.0758387142  4.0738036739  3.2496558028
 126  1 0.0    1.8723361473  2.7312827336  3.7289473259
 127  2 0.0    5.5824311263 -0.5464581023  2.1324103551
 128  1 0.0    6.4370997262 -0.3880281245  1.6378779634
 129  1 0.0    5.5417505603 -1.4997431433  2.4305346280
 130  2 0.0    2.7746334582  5.0269837837 -2.2622042422
 131  1 0.0    2.8177787792  4.0678416825 -1.9834181575
 132  1 0.0    3.5527232464  5.5213855403 -1.8752881729
 133  2 0.0    3.3678875598  0.1779393404  0.4562761877
 134  1 0.0    2.8747091458 -0.6919514532  0.4523329399
 135  1 0.0    4.0800243724  0.1555232775  1.1580664486
 136  2 0.0    1.0060419508  0.4645489973 -2.6248414575
 137  1 0.0    0.2599172107  1.1303790696 -2.6271299291
 138  1 0.0    1.5857344961  0.6110571970 -3.4266536739
 139  2 0.0   -1.9599743404  1.4873165175  3.1580644401
 140  1 0.0   -1.5934992314  1.1054037786  4.0066954874
 141  1 0.0   -2.7096390622  0.9125358029  2.8301647984
 142  3 0.0  -5.4401431033  3.1073764155  2.4958342861
 143  2 0.0   -5.2286832882  4.8267555582  1.9850179984
 144  1 0.0   -4.9915572758  4.7115416360  1.0305698570
 145  2 0.0   -7.1538789579  2.6476099476  2.7802256053
 146  1 0.0   -7.1452979542  1.6794356497  2.9882382846
 147  2 0.0   -4.5185598121  1.9323582052  1.5023771617
 148  1 0.0   -3.6158372582  2.3191989829  1.3764298425
 149  3 0.0   5.0217467997  0.7017982289  4.7695349036
 150  2 0.0    5.2289111960  2.4544772751  4.3859827641
 151  1 0.0    5.2860119732  2.4252496058  3.3978737151
 152  2 0.0    3.3642394617  0.2772059967  5.3186660974
 153  1 0.0    3.3588519856 -0.7064124313  5.4334273406
 154  2 0.0    5.6888272729 -0.4018135649  3.5229454500
 155  1 0.0    6.5737726807 -0.0366345295  3.2700968371
 156  3 0.0   1.2711293228  7.7835886604 -1.2540957831
 157  2 0.0    0.1292791493  7.8289669845 -2.6526779790
 158  1 0.0    0.5865597231  7.2230687495 -3.2884893141
 159  2 0.0    0.6444963340  6.8623882026  0.1558244347
 160  1 0.0    1.3761662118  6.8545498869  0.8231340557
 161  2 0.0    2.9601391694  7.3811244240 -1.7037722127
 162  1 0.0    3.1679824166  7.9104484347 -2.5143484275