LAMMPS (19 Sep 2019)
OMP_NUM_THREADS environment is not set. Defaulting to 1 thread. (../comm.cpp:93)
  using 1 OpenMP thread(s) per MPI task
Reading data file ...
  orthogonal box = (-7.4 -6.6 -6.3) to (6.5 8 6.8)
  1 by 1 by 1 MPI processor grid
  reading atoms ...
  162 atoms
  read_data CPU = 0.361508 secs
Replicating atoms ...
  orthogonal box = (-7.4 -6.6 -6.3) to (34.3 37.2 33)
  1 by 1 by 1 MPI processor grid
  4374 atoms
  replicate CPU = 0.000901 secs
Reading potential file ffield.reax.Fe_O_C_H with DATE: 2011-02-18
Neighbor list info ...
  update every 10 steps, delay 0 steps, check no
  max neighbors/atom: 2000, page size: 100000
  master list distance cutoff = 12
  ghost atom cutoff = 12
  binsize = 6, bins = 7 8 7
  2 neighbor lists, perpetual/occasional/extra = 2 0 0
  (1) pair reax/c, perpetual
      attributes: half, newton off, ghost
      pair build: half/bin/newtoff/ghost
      stencil: half/ghost/bin/3d/newtoff
      bin: standard
  (2) fix qeq/reax, perpetual, copy from (1)
      attributes: half, newton off, ghost
      pair build: copy
      stencil: none
      bin: none
Setting up Verlet run ...
  Unit style    : real
  Current step  : 0
  Time step     : 0.07
Per MPI rank memory allocation (min/avg/max) = 376.2 | 376.2 | 376.2 Mbytes
Step Temp E_pair E_mol TotEng Press Volume 
       0          300   -345403.24            0   -341492.72    48131.119    71779.878 
      10    323.19656   -349598.46            0   -345385.56   -33.138936     79671.26 
      20    319.31979   -352834.18            0   -348671.82    83.568675    80507.136 
      30    315.69312   -356175.06            0   -352059.97    101.98161    81993.549 
      40    312.40741   -359245.68            0   -355173.42    105.14827    83761.358 
      50    309.92298   -361946.21            0   -357906.34    104.51704    85765.041 
      60    307.57771   -364240.96            0   -360231.66    112.51506    87919.848 
      70    305.49222   -366111.29            0   -362129.18    116.38958    90239.338 
      80    304.08794   -367589.44            0   -363625.63    129.27267    92791.877 
      90    303.44705   -368737.45            0      -364782     131.2231    95604.348 
     100    303.33614   -369608.25            0   -365654.24    134.45715    98631.965 
     110    302.43146   -370244.98            0   -366302.76    128.31933     101793.5 
     120    301.56982   -370671.99            0   -366741.01    125.62836    105039.46 
     130    300.80246   -370916.78            0    -366995.8    101.97135    108216.76 
     140    299.66089   -370992.66            0   -367086.55    93.338081    111121.33 
     150     305.2385   -370927.54            0   -366948.74    72.265396     114126.4 
     160    298.77527   -370799.01            0   -366904.45    47.796863    116917.79 
     170    303.60648   -370662.72            0   -366705.18    15.428722    119275.59 
     180     298.9811   -370583.45            0    -366686.2    7.5502259    121012.31 
     190    303.41554   -370595.26            0   -366640.22   -8.4472123    122016.22 
     200    300.32603   -370723.21            0   -366808.43   -2.9954796    122096.12 
     210    297.98438   -370976.57            0   -367092.32    6.5207061    121245.43 
     220    297.59523   -371348.54            0   -367469.37    11.870636    119525.49 
     230    303.65968   -371824.76            0   -367866.53   -38.539535    117086.18 
     240    303.35664   -372379.84            0   -368425.56   -13.681679    114012.51 
     250    303.10211   -372967.59            0   -369016.63   -70.698322    110691.52 
     260    302.70767   -373528.76            0   -369582.94   -76.284789     107328.6 
     270    302.41163   -374030.75            0   -370088.79   -111.35622    103873.09 
     280    302.07431   -374474.98            0   -370537.42   -121.93508    100459.17 
     290    301.71275   -374849.51            0   -370916.66   -127.74384    97238.937 
     300    301.30261   -375151.62            0   -371224.12   -116.97379    94207.607 
     310    300.86022   -375371.55            0   -371449.81   -119.89526    91384.593 
     320    300.09249   -375498.42            0   -371586.69    -110.0874     88822.91 
     330    296.35344   -375525.11            0   -371662.12   -78.576621    86585.524 
     340    301.51308   -375461.65            0    -371531.4   -56.342632    84683.878 
     350    291.42887   -375342.23            0   -371543.43   -25.878154     83119.39 
     360    301.12895   -375216.91            0   -371291.67   -27.636127    81983.912 
     370    305.61449   -375139.03            0   -371155.32   -44.491694    81260.566 
     380    291.52157    -375135.1            0   -371335.09    41.791598    80903.785 
     390    305.73444   -375204.17            0   -371218.89   -30.155667    81003.042 
     400    305.51051   -375336.91            0   -371354.56    52.318361    81430.297 
     410    298.82408   -375524.21            0   -371629.02   -63.390969    82236.455 
     420    295.57358   -375762.17            0   -371909.34    47.832459    83319.397 
     430    297.40401   -376037.19            0   -372160.51    120.87832    84725.893 
     440    298.43226   -376330.45            0   -372440.36   -128.08946    86463.765 
     450    301.14693   -376615.44            0   -372689.96   -315.49993    88407.101 
     460     300.5437   -376853.03            0   -372935.42   -351.73327    90484.861 
     470    294.83038   -377004.49            0   -373161.35   -266.84058    92599.604 
     480    301.32023   -377034.81            0   -373107.08   -150.35747    94807.405 
     490    303.70396   -376972.47            0   -373013.66   -61.281673    97123.137 
     500    301.97227   -376852.92            0   -372916.69   -11.373779     99471.92 
     510      293.316   -376704.56            0   -372881.17    58.288991    101746.12 
     520    303.98518   -376539.09            0   -372576.62     27.48745    104013.52 
     530     298.8785   -376359.29            0   -372463.38    38.413884     106034.5 
     540    300.54096   -376163.79            0   -372246.21     19.60741     107796.8 
     550    297.42345   -375976.99            0   -372100.06   -8.9569505    109195.41 
     560    301.44373   -375841.55            0   -371912.21    24.724154    110157.17 
     570    298.70958   -375788.54            0   -371894.84   -23.815589    110648.75 
     580    297.63624    -375820.7            0   -371940.99     32.68618    110574.12 
     590    303.30334   -375913.74            0   -371960.15   -56.517624    110101.29 
     600    296.77969   -376051.08            0   -372182.53   -80.463808    109166.23 
     610    298.21334   -376213.57            0   -372326.34    231.37461     107780.3 
     620    304.90422   -376371.66            0    -372397.2    528.50991    106176.81 
     630    303.66358   -376495.17            0   -372536.89   -354.00934     104850.7 
     640    298.31212   -376583.72            0    -372695.2   -1101.2051    103340.19 
     650    299.59114   -376653.56            0   -372748.36   -616.32482    101325.76 
     660    302.29031   -376695.41            0   -372755.03   -69.925647    99246.836 
     670    298.51262   -376715.73            0   -372824.59    75.859301    97280.149 
     680    304.71627   -376713.97            0   -372741.97    77.307159    95417.125 
     690     293.7331   -376687.86            0   -372859.02    71.687428    93646.391 
     700    298.39098   -376640.08            0   -372750.53    67.778141    92031.281 
     710    302.10464   -376577.44            0   -372639.49    51.463004    90576.951 
     720    297.07005   -376499.46            0   -372627.13    21.538675    89325.215 
     730    300.60503   -376419.86            0   -372501.45   -2.2472541    88337.973 
     740    297.62875   -376374.84            0   -372495.22      25.7963     87622.44 
     750    298.75144   -376385.85            0    -372491.6    76.150204    87205.563 
     760    306.57466   -376444.24            0   -372448.02    31.471209    87106.858 
     770    297.20128   -376527.22            0   -372653.18   -63.510241    87257.153 
     780    301.56219   -376611.51            0   -372680.62   -280.59261    87673.346 
     790    305.50326   -376690.31            0   -372708.05   -272.43305    88229.496 
     800    297.63012   -376767.33            0   -372887.69    455.73306    88792.835 
     810     300.5639   -376851.47            0   -372933.59    1446.4787    89480.646 
     820    305.57384    -376952.1            0   -372968.92    1537.4206    90538.066 
     830    296.74219   -377055.46            0    -373187.4     946.2135    91853.434 
     840    300.74336   -377119.78            0   -373199.56    540.73678    93210.551 
     850    303.59584   -377110.94            0   -373153.55    301.56169    94558.426 
     860    295.27235   -377042.68            0   -373193.78    193.24896    95881.777 
     870    310.49511   -376959.13            0    -372911.8    74.681536    97271.542 
     880    298.86785   -376898.13            0   -373002.36    42.134899    98539.034 
     890    299.67242   -376854.27            0   -372948.02    11.184018    99753.381 
     900    309.69191   -376797.24            0   -372760.38    3.5918501     100856.4 
     910    296.07081   -376704.06            0   -372844.75    16.965957    101737.42 
     920    298.67737   -376588.23            0   -372694.95    -29.19419    102463.86 
     930     303.0739   -376499.26            0   -372548.67   -27.453089    102936.15 
     940    297.61341   -376485.21            0    -372605.8    12.161194    103096.38 
     950    296.98044   -376551.49            0   -372680.33   -100.31203    103036.21 
     960      303.557   -376656.08            0   -372699.19   -115.52751    102699.12 
     970     298.0943   -376761.48            0    -372875.8    9.5059865    102016.28 
     980    300.02551   -376844.08            0   -372933.22    251.03088    101081.64 
     990    304.65451   -376911.16            0   -372939.96    566.39242    99975.576 
    1000    292.91883   -376985.07            0   -373166.85    881.59046    98736.027 
    1010      306.615   -377067.88            0   -373071.13    871.76415    97579.699 
    1020    304.80656   -377138.79            0   -373165.61    723.18969    96410.476 
    1030    298.34231   -377167.34            0   -373278.42    485.18549    95234.212 
    1040    302.46066    -377141.5            0    -373198.9     272.3155    94084.295 
    1050    299.67323   -377087.74            0   -373181.47    180.65488    92928.191 
    1060    297.89747   -377048.23            0   -373165.11    32.188616    91863.755 
    1070    301.01921   -377049.24            0   -373125.43   -180.83804    90936.639 
    1080    296.10996   -377083.76            0   -373223.94   -304.50845    90120.354 
    1090    300.92997   -377121.64            0      -373199    568.92243    89252.209 
    1100    298.79321   -377124.68            0   -373229.89    448.18721    88758.477 
    1110     295.8858   -377088.75            0   -373231.86   -1305.1144    88778.687 
    1120    307.14063   -377090.97            0   -373087.36    891.30452    88171.403 
    1130    295.57309   -377118.96            0   -373266.14    506.58359    88313.243 
    1140    301.45387   -377190.76            0   -373261.28   -1239.4258    88983.753 
    1150    302.14772   -377318.03            0   -373379.51    459.46217    89069.542 
    1160    299.23576   -377405.85            0   -373505.29    376.59714    89686.433 
    1170    302.78998   -377434.21            0   -373487.32   -168.94028    90538.702 
    1180    297.22514   -377423.28            0   -373548.93   -278.39411    91356.397 
    1190    302.62199   -377408.83            0   -373464.13   -244.30072    92210.441 
    1200    297.11355    -377416.7            0    -373543.8   -301.46808     93093.89 
    1210    294.66373   -377442.52            0   -373601.55   -534.01135    94026.551 
    1220    307.44636   -377462.03            0   -373454.44   -701.58869    94913.018 
    1230    295.04465   -377448.11            0   -373602.17   -643.73177    95583.835 
    1240    297.84907   -377381.75            0   -373499.27   -519.08792    96116.777 
    1250    303.99399   -377283.04            0   -373320.45    -419.9846    96515.643 
    1260    294.66693   -377200.62            0   -373359.61   -302.44749    96743.443 
    1270    300.36257   -377166.09            0   -373250.83   -250.37535    96864.392 
    1280    294.81922   -377169.65            0   -373326.65   -184.64717    96813.953 
    1290    304.65685   -377176.11            0   -373204.89   -130.48967    96631.141 
    1300    299.47688   -377168.48            0   -373264.77   -29.793656    96214.647 
    1310    299.60278   -377155.88            0   -373250.53   -25.088024    95626.703 
    1320    303.04201      -377163            0   -373212.83   -5.2892135    94862.426 
    1330    298.78942   -377203.99            0   -373309.24    7.0605562     93976.29 
    1340    300.45873   -377284.09            0   -373367.59    58.431382    93020.131 
    1350    299.42025   -377382.64            0   -373479.67   -29.076423    92051.099 
    1360    299.27687   -377459.63            0   -373558.53   -229.85405    91111.123 
    1370    302.84929    -377484.3            0   -373536.64    -247.4405    90196.549 
    1380    297.10142   -377461.15            0   -373588.41    301.85199    89246.042 
    1390    300.25442   -377411.49            0   -373497.65    687.76742    88461.424 
    1400    302.04143   -377355.21            0   -373418.08   -907.40509    88228.436 
    1410    294.48875   -377337.87            0   -373499.18   -242.57721    87632.303 
    1420    301.64306   -377334.74            0    -373402.8    1367.6008    87015.318 
    1430    294.09824   -377306.08            0   -373472.48   -1422.7578    87427.172 
    1440    302.54937   -377315.29            0   -373371.53    734.49229     86988.11 
    1450    297.25088   -377319.31            0   -373444.62    23.178379    87260.803 
    1460    299.98521   -377347.06            0   -373436.73   -189.77755    87585.193 
    1470    303.15022   -377394.31            0   -373442.72    246.04489    87911.408 
    1480    294.41989   -377441.39            0    -373603.6   -148.30657    88512.115 
    1490    301.82773    -377480.2            0   -373545.85   -165.54716    89158.433 
    1500     300.4365   -377513.01            0   -373596.79    721.86472    89638.127 
    1510    297.03424   -377513.47            0    -373641.6    -368.9417    90595.772 
    1520    300.93989   -377506.15            0   -373583.37   -1057.1068    91481.913 
    1530    296.63393   -377517.41            0   -373650.76   -73.357848    91915.692 
    1540    300.06945   -377520.91            0   -373609.48     847.2069     92305.79 
    1550    301.80094    -377503.2            0    -373569.2    876.87789    92811.352 
    1560    296.67265   -377462.41            0   -373595.26    301.43899    93338.273 
    1570    300.98318   -377408.41            0   -373485.07   -42.133539    93690.133 
    1580     294.6766   -377354.57            0   -373513.43   -132.04425    93814.367 
    1590    299.74115   -377308.18            0   -373401.03   -168.76044    93792.139 
    1600    302.64776   -377273.54            0   -373328.51   -289.81331    93643.567 
    1610    298.32125    -377253.3            0   -373364.66   -523.18837    93382.096 
    1620    302.48083   -377252.79            0   -373309.93   -404.82432     92933.35 
    1630    300.27068   -377272.71            0   -373358.66    399.47609    92214.188 
    1640    302.73487   -377298.82            0   -373352.65    1260.1092    91443.806 
    1650    297.94169   -377334.14            0   -373450.45    585.89298    90983.462 
    1660    302.03651   -377372.73            0   -373435.66   -829.53472    90682.033 
    1670    299.36461   -377422.28            0   -373520.04   -370.24759    89962.612 
    1680    295.92372   -377463.81            0   -373606.42    419.29497    89221.907 
    1690    308.59834   -377487.45            0   -373464.84   -5.5280892    88846.132 
    1700    294.85547   -377499.95            0   -373656.48   -311.67447    88497.035 
    1710    300.63038   -377502.76            0   -373584.01    562.45795    88031.799 
    1720    302.44267   -377476.09            0   -373533.72   -891.16514    88156.243 
    1730    297.87615    -377471.8            0   -373588.96    203.39126    87846.626 
    1740    302.71787   -377473.49            0   -373527.54    574.34585    87821.618 
    1750    296.43495   -377485.19            0   -373621.14   -783.72366    88254.952 
    1760    297.03507   -377538.72            0   -373666.84    776.64013    88203.846 
    1770     306.4056   -377583.17            0   -373589.15   -680.34923    88895.159 
    1780    295.52273   -377643.61            0   -373791.44    446.06386    89114.604 
    1790    305.27003   -377680.24            0   -373701.02   -32.366633    89782.945 
    1800    302.55914   -377706.25            0   -373762.37   -376.48807    90455.923 
    1810    295.68391   -377740.09            0   -373885.83    241.02145    90943.366 
    1820    298.37999   -377774.25            0   -373884.84    238.01972     91613.58 
    1830    300.42526   -377799.16            0   -373883.09   -213.03352    92392.873 
    1840    294.38335   -377798.49            0   -373961.18   -608.25896    93133.087 
    1850    303.06465   -377767.73            0   -373817.26   -211.15802    93672.016 
    1860    298.32731   -377717.22            0    -373828.5     824.0422    93989.198 
    1870    301.81124    -377662.6            0   -373728.46    1229.3631    94415.518 
    1880    305.82091   -377622.88            0   -373636.48    710.54302    94989.548 
    1890    292.89898   -377606.06            0    -373788.1    35.148685    95471.349 
    1900    302.59153   -377613.32            0   -373669.01   -224.56914    95797.321 
    1910     302.8957   -377638.07            0    -373689.8   -226.72825    95963.586 
    1920    299.14426   -377675.55            0   -373776.18   -228.78623    96014.785 
    1930    304.42917   -377713.68            0   -373745.42   -184.05444    95978.906 
    1940    297.80857   -377756.17            0   -373874.21    49.928068    95817.503 
    1950    301.05451    -377808.2            0   -373883.93    491.23294    95581.819 
    1960    305.83863   -377862.17            0   -373875.54    727.36058    95376.727 
    1970    293.58302   -377894.35            0   -374067.48     229.6446    95315.848 
    1980    304.05399   -377877.96            0   -373914.59   -864.61887    95439.811 
    1990     298.6142   -377840.53            0   -373948.07    -925.8513    95231.726 
    2000    294.96283   -377820.74            0   -373975.88    681.30915    94534.868 
    2010    307.32527   -377808.56            0   -373802.55    1413.3063    94081.431 
    2020    289.50771   -377803.87            0   -374030.12    34.809866    94160.772 
    2030    304.25153   -377806.06            0   -373840.11   -667.93908    94175.809 
    2040    298.58459   -377807.38            0   -373915.31   -135.06654    93914.611 
    2050    296.59311   -377786.85            0   -373920.73    427.63728    93736.476 
    2060    303.28633   -377756.87            0    -373803.5    117.32934    93882.991 
    2070    297.95492    -377748.4            0   -373864.53   -742.99579    94253.993 
    2080    301.90234   -377780.96            0   -373845.64   -795.46878    94551.031 
    2090    298.93984   -377835.51            0    -373938.8    1175.6126    94427.334 
    2100    300.58494   -377846.03            0   -373927.88    1109.7096     94914.16 
    2110    302.22188   -377810.75            0   -373871.26   -157.30677    95759.867 
    2120    295.51658   -377766.46            0   -373914.38   -550.78155    96399.767 
    2130    302.53091   -377749.44            0   -373805.92   -349.19031    96920.056 
    2140    294.30642   -377767.79            0   -373931.48    67.294806    97359.236 
    2150    309.71883   -377799.95            0   -373762.74    149.40679    97929.984 
    2160    296.76187   -377826.63            0   -373958.32    102.33038    98462.387 
    2170    299.53968   -377831.62            0   -373927.09    30.726101    98994.409 
    2180     302.4523    -377819.5            0   -373877.01   -54.214139    99483.701 
    2190    295.80463   -377811.02            0   -373955.18   -129.05692    99903.763 
    2200    305.11879   -377817.06            0   -373839.81   -292.92157    100339.53 
    2210    299.09428    -377837.2            0   -373938.48   -368.30767    100668.18 
    2220    300.97126    -377848.5            0   -373925.31   -435.90757    100932.09 
    2230    302.03442   -377836.67            0   -373899.63   -340.24725    101050.07 
    2240    300.10729   -377799.41            0   -373887.49     200.7445    100942.84 
    2250    299.58357   -377772.15            0   -373867.06    1038.9988    100618.23 
    2260    302.87903   -377770.36            0   -373822.31     1233.629    100379.17 
    2270    298.76937   -377780.46            0   -373885.97     614.0485    100329.37 
    2280    304.12024   -377790.31            0   -373826.08    91.779006    100234.31 
    2290    297.79542   -377793.33            0   -373911.55   -113.78953    99982.771 
    2300    300.35182   -377788.62            0   -373873.51   -327.57465    99715.935 
    2310    305.17138   -377786.47            0   -373808.53   -366.38765    99394.975 
    2320    296.61357   -377789.89            0   -373923.51   -43.898926    98971.365 
    2330    299.94548   -377788.69            0   -373878.88     823.5036     98460.04 
    2340    298.29944   -377758.79            0   -373870.43    965.01807    98190.691 
    2350     302.5044   -377683.11            0   -373739.94   -304.49874    98385.751 
    2360    296.02487   -377585.76            0   -373727.05   -1100.8568    98508.753 
    2370    301.27217   -377512.92            0   -373585.81   -372.90692     98306.03 
    2380    297.57645   -377472.47            0   -373593.54    468.91652    98138.895 
    2390     297.8694   -377466.35            0    -373583.6    282.01342    98334.193 
    2400    304.36636   -377476.96            0   -373509.52   -76.260863    98660.637 
    2410    292.56383   -377472.97            0   -373659.38   -227.10827    98982.669 
    2420    303.23686   -377442.22            0    -373489.5   -88.267295    99354.365 
    2430    298.54329   -377410.36            0   -373518.82    446.34377    99675.382 
    2440    301.25277   -377401.68            0   -373474.83    757.36858    100158.86 
    2450     300.7561   -377419.51            0   -373499.13    141.24718     100982.6 
    2460    297.33125   -377441.52            0   -373565.78   -606.45253    101900.41 
    2470    301.33571    -377439.2            0   -373511.26   -899.33901    102739.73 
    2480    294.47144   -377403.48            0   -373565.02   -715.80497    103432.54 
    2490    310.01218   -377333.88            0   -373292.84   -340.20892    104133.48 
    2500     291.2067    -377256.6            0   -373460.69    104.90843    104739.59 
    2510    302.43684   -377202.93            0   -373260.64    272.54917    105407.67 
    2520    303.01033   -377182.65            0   -373232.88    284.28226    105999.61 
    2530    292.51208   -377172.58            0   -373359.66    222.88456    106523.13 
    2540    306.52085   -377158.42            0    -373162.9    125.10454    107014.94 
    2550    292.10831   -377140.43            0   -373332.78    135.38751       107312 
    2560    301.04399   -377129.08            0   -373204.95    105.71905    107551.78 
    2570    302.41087   -377130.92            0   -373188.97    45.943413    107682.66 
    2580    296.78557   -377139.77            0   -373271.15    64.754038    107681.25 
    2590    300.91635   -377146.56            0   -373224.09    111.04664    107574.26 
    2600    298.55956   -377148.35            0    -373256.6    158.31955    107319.26 
    2610    300.60099    -377142.8            0   -373224.44    233.17505    106968.38 
    2620    301.51835   -377139.79            0   -373209.47    273.77786    106558.19 
    2630    296.92767   -377145.16            0   -373274.68     201.3326    106108.88 
    2640     301.3923   -377156.47            0    -373227.8   -6.3989214    105655.29 
    2650    295.01064   -377167.79            0   -373322.31   -327.37362    105162.15 
    2660    306.25493   -377182.34            0   -373190.29   -703.46886    104653.28 
    2670     300.5092   -377205.56            0   -373288.39   -919.47284    104021.43 
    2680    296.29858   -377241.28            0   -373379.01   -660.38794    103250.34 
    2690    302.61035   -377278.59            0   -373334.04   -214.68618    102503.46 
    2700     298.0623   -377313.08            0   -373427.81    -52.18896    101885.91 
    2710    302.88192   -377345.23            0   -373397.13     118.3155    101349.01 
    2720    298.50033   -377371.99            0   -373481.02    294.44958    100858.76 
    2730    299.23071   -377388.57            0   -373488.08    180.88771     100525.6 
    2740    302.03438   -377390.23            0   -373453.19    -621.6746    100469.61 
    2750    298.47832   -377398.13            0   -373507.44   -744.86429     100279.2 
    2760    302.46612   -377427.04            0   -373484.37    599.16537    99753.589 
    2770    298.80614    -377463.7            0   -373568.74    1083.9418    99495.764 
    2780    303.95485   -377491.84            0   -373529.76   -270.25209    99801.558 
    2790    299.23494   -377511.83            0   -373611.28   -942.42758    99939.845 
    2800    298.06136   -377540.02            0   -373654.77   -326.84473    99754.835 
    2810    303.07607   -377572.72            0    -373622.1    161.66333    99663.135 
    2820    298.79642   -377616.67            0   -373721.83    327.67357    99685.048 
    2830    300.58014   -377662.87            0   -373744.79    175.55593    99838.818 
    2840    301.90901    -377696.2            0   -373760.79   -181.72967    100076.18 
    2850    298.01676   -377699.75            0   -373815.07   -891.06969    100437.61 
    2860    303.06585   -377684.57            0   -373734.09   -1017.1229    100655.41 
    2870    297.87535   -377674.06            0   -373791.23   -254.06728    100568.13 
    2880    301.82556   -377674.58            0   -373740.26    506.41707    100456.03 
    2890    298.26086   -377690.04            0   -373802.18    675.88176    100461.76 
    2900    300.18476   -377717.16            0   -373804.23    448.47096    100529.01 
    2910    297.69588   -377747.71            0   -373867.22    174.39493    100519.03 
    2920    301.61967   -377767.59            0   -373835.96   -30.202714    100435.49 
    2930    296.21318   -377777.99            0   -373916.82    -58.07341    100223.36 
    2940    302.56959   -377788.14            0   -373844.12   -57.078988    99960.836 
    2950    299.13501   -377805.47            0   -373906.22   -28.799384    99616.194 
    2960    298.83285   -377828.77            0   -373933.46    44.719294    99230.874 
    2970    304.45614   -377855.91            0    -373887.3    88.467282    98852.063 
    2980    298.90438    -377885.4            0   -373989.16    187.98257    98427.343 
    2990    302.57527   -377910.99            0   -373966.89    16.965086    98091.524 
    3000    296.13035   -377930.18            0    -374070.1   -331.36032     97794.02 
    3010    299.35957    -377938.7            0   -374036.52   -445.37666    97469.771 
    3020    306.28709   -377946.76            0   -373954.29    347.77722    96915.895 
    3030    296.59458   -377959.82            0   -374093.68    968.46314    96379.622 
    3040    300.81667    -377969.2            0   -374048.03   -616.29336      96457.8 
    3050    298.82759   -377992.01            0   -374096.77   -1160.2133    96288.659 
    3060    300.37962   -378041.94            0   -374126.46    758.69812    95528.821 
    3070    299.17688   -378071.69            0   -374171.89    813.53064     95297.53 
    3080    303.50561   -378072.45            0   -374116.23   -961.39818    95593.416 
    3090    299.31998   -378077.87            0   -374176.21   -341.09924    95332.583 
    3100    297.25733   -378079.09            0   -374204.31    1101.9601    94941.465 
    3110    301.13033   -378065.98            0   -374140.72   -189.36277    95312.786 
    3120    301.55808   -378055.53            0    -374124.7   -881.38636    95596.154 
    3130    301.10075   -378060.06            0   -374135.19    255.82352    95462.081 
    3140    297.07696   -378053.02            0    -374180.6    777.41562    95516.614 
    3150    303.05332   -378031.98            0   -374081.66   -26.533579    95949.563 
    3160    293.24997   -378006.13            0    -374183.6   -834.06628    96371.301 
    3170    300.57306   -377989.42            0   -374071.43   -780.56454    96597.038 
    3180    300.85905   -377989.81            0   -374068.09     617.2311    96433.698 
    3190    302.56855    -377984.7            0    -374040.7    1652.9832    96348.351 
    3200    300.70022   -377962.69            0   -374043.04    537.95228    96818.472 
    3210     300.7791    -377924.4            0   -374003.72   -149.35718     97175.03 
    3220    295.53721   -377880.94            0   -374028.58    -439.6878    97408.409 
    3230    305.81695   -377832.79            0   -373846.44   -472.74199    97585.498 
    3240    299.80058   -377792.39            0   -373884.47   -115.38218     97592.76 
    3250    295.20495   -377762.14            0   -373914.12     800.1731    97408.909 
    3260    307.14269   -377734.25            0   -373730.62     1690.448    97220.038 
    3270    299.65055   -377708.37            0    -373802.4      771.522    97445.208 
    3280    301.71639   -377684.39            0   -373751.49   -281.42245    97680.968 
    3290    300.09689   -377668.32            0   -373756.53   -372.84773    97620.379 
    3300    299.17107   -377657.44            0   -373757.72   -240.02082     97465.67 
    3310    301.67243   -377653.61            0   -373721.29    125.02983    97214.869 
    3320     296.7016   -377645.24            0   -373777.71    746.54393    96886.224 
    3330    307.59012    -377641.1            0   -373631.64    903.39292    96711.486 
    3340    295.86329   -377634.26            0   -373777.66   -225.16414    96865.848 
    3350    298.96502    -377617.9            0   -373720.87   -1230.3276    97041.502 
    3360    300.89002   -377605.44            0   -373683.31   -697.08084    96822.149 
    3370    297.75525   -377583.68            0   -373702.42     126.6786    96553.885 
    3380    301.27255   -377553.19            0   -373626.08    331.98963    96500.824 
    3390    294.83219   -377525.82            0   -373682.66    142.59575    96560.438 
    3400    308.25809   -377506.92            0   -373488.75   -332.04776    96746.192 
    3410    296.37797   -377493.37            0   -373630.06   -509.00403    96850.708 
    3420    300.45317   -377485.79            0   -373569.35    16.948868    96821.715 
    3430    296.70808   -377480.72            0    -373613.1    1032.6121    96669.688 
    3440    302.01366   -377476.51            0   -373539.74    1060.2861    96824.373 
    3450    303.25673   -377474.21            0   -373521.23    78.781255    97280.654 
    3460    297.13863   -377473.38            0   -373600.16   -792.26567    97727.096 
    3470    304.66052   -377476.49            0   -373505.22   -930.81584    98009.859 
    3480    293.30261   -377482.08            0   -373658.85   -289.95842    98045.611 
    3490    307.18902   -377476.43            0    -373472.2    512.92183     98079.72 
    3500    300.35727   -377453.28            0   -373538.09    900.27482    98193.418 
    3510    295.92833   -377423.32            0   -373565.87    632.71262    98483.196 
    3520    305.01448   -377393.01            0   -373417.12   -909.95841    99144.482 
    3530    295.01534   -377387.77            0   -373542.23   -1457.3072    99470.853 
    3540    300.77089    -377407.7            0   -373487.13   -671.17631    99418.996 
    3550    296.56873   -377420.79            0   -373554.99   -54.849011    99374.129 
    3560     303.5034   -377418.33            0   -373462.14    356.63738    99377.878 
    3570    300.24038   -377401.14            0   -373487.49    613.73554    99395.737 
    3580    303.31428   -377393.42            0   -373439.69    614.87012      99468.2 
    3590    300.01935   -377404.05            0   -373493.28    24.848394     99667.15 
    3600    297.09443   -377408.03            0   -373535.38   -1346.9667    100083.18 
    3610      303.769   -377416.98            0   -373457.33   -1255.4262     100051.5 
    3620    299.55423   -377409.85            0   -373505.13   -550.85829    99809.672 
    3630    302.64385   -377379.04            0   -373434.05    214.24426    99570.425 
    3640    303.04624   -377342.22            0   -373391.99    778.61438    99386.537 
    3650    296.32792   -377316.05            0   -373453.39    712.33604     99373.31 
    3660    299.55989    -377301.5            0   -373396.71   -180.61696    99617.647 
    3670     301.1477   -377275.81            0   -373350.32   -1669.9343    100052.91 
    3680    298.18192   -377261.93            0    -373375.1   -1435.3665    99993.501 
    3690    303.45975   -377257.38            0   -373301.76    394.47086     99497.81 
    3700    296.98011   -377243.08            0   -373371.92    754.60424    99430.281 
    3710    301.54493   -377242.64            0   -373311.98    400.02279    99607.675 
    3720    299.21735    -377256.8            0   -373356.48   -305.93379     99895.68 
    3730    303.62334   -377274.76            0      -373317   -869.97391     100185.7 
    3740    297.80118   -377295.89            0   -373414.03   -722.82833    100280.82 
    3750    299.21754   -377316.96            0   -373416.64     1065.816    99941.834 
    3760    303.05979   -377317.88            0   -373367.48    1591.1821    99998.762 
    3770    297.37635   -377308.46            0   -373432.14    286.42686    100605.53 
    3780    307.85622   -377301.28            0   -373288.35   -385.13557     101084.4 
    3790    294.17169   -377298.72            0   -373464.17   -631.44531    101406.31 
    3800    300.70272   -377292.79            0    -373373.1   -460.15814    101646.14 
    3810    297.57576   -377289.02            0    -373410.1    204.67711    101703.99 
    3820    301.20942   -377294.93            0   -373368.64    1313.8617    101609.88 
    3830    302.64871   -377307.84            0   -373362.79    1668.6126    101726.84 
    3840    298.24729   -377327.67            0   -373439.99     492.4543    102266.67 
    3850    305.14358   -377339.42            0   -373361.85   -76.368696    102614.91 
    3860    299.26624   -377337.91            0   -373436.95   -298.11768     102813.8 
    3870    299.94681   -377319.07            0   -373409.23    -517.3551    103024.66 
    3880    300.03421   -377292.78            0   -373381.81   -706.95464    103222.03 
    3890    298.75983   -377269.86            0    -373375.5   -761.80353    103360.77 
    3900    302.84957   -377262.71            0   -373315.04   -214.81518    103291.98 
    3910    297.50494   -377266.97            0   -373388.96    624.76893     103088.8 
    3920    302.97293   -377265.45            0   -373316.18    784.04719    103111.86 
    3930    300.15084   -377251.74            0   -373339.24     759.9865    103171.73 
    3940    295.49427   -377220.18            0   -373368.39    508.91526    103293.39 
    3950    304.98908   -377178.37            0   -373202.81    15.312198    103517.13 
    3960    295.54602   -377146.32            0   -373293.85   -587.57075    103737.76 
    3970    301.88644   -377135.03            0   -373199.92   -1099.2569       103960 
    3980    298.19318   -377148.12            0   -373261.15   -1069.3409    103990.86 
    3990     302.9126   -377168.64            0   -373220.15   -363.98195    103830.95 
    4000    300.99259    -377171.3            0   -373247.84    316.59818    103703.82 
    4010    299.63505   -377158.21            0   -373252.44    438.19133     103793.6 
    4020    303.55161   -377140.66            0   -373183.84    368.27595    103979.65 
    4030    296.43659    -377121.5            0   -373257.42    242.40013     104181.6 
    4040    300.21495   -377098.66            0   -373185.34   -17.091498     104465.7 
    4050    294.95192   -377078.92            0    -373234.2   -665.14891    104882.14 
    4060    299.04182   -377069.11            0   -373171.08   -1385.3729    105358.02 
    4070    299.20422   -377080.97            0   -373180.82   -1137.5215    105516.57 
    4080    305.57469   -377088.06            0   -373104.87   -627.73038    105615.12 
    4090    296.50832   -377085.38            0   -373220.37   -176.12412       105712 
    4100    300.61524   -377073.58            0   -373155.03    84.395336    105890.79 
    4110    299.24449   -377057.63            0   -373156.95    255.51857    106086.55 
    4120    301.98072   -377050.61            0   -373114.26    552.40837    106220.06 
    4130    298.22516   -377051.34            0   -373163.95    1213.3468    106187.48 
    4140    301.36824   -377046.82            0   -373118.46    1348.3291    106340.73 
    4150    301.23576   -377031.48            0   -373104.84    796.74903    106721.34 
    4160    299.90468   -377004.27            0   -373094.99    273.74527    107090.99 
    4170    298.93453   -376973.68            0   -373077.04    14.575863    107350.68 
    4180     300.2981   -376946.47            0   -373032.06   -115.95009    107536.39 
    4190    296.96376   -376929.43            0   -373058.49   -271.07625     107668.1 
    4200    299.70281   -376926.86            0   -373020.21   -514.12564    107792.77 
    4210    299.03861   -376930.96            0   -373032.97   -1135.6004     108011.3 
    4220    298.89152   -376926.43            0   -373030.35   -2212.2656    108383.99 
    4230    297.61104   -376960.17            0   -373080.79   -1348.5227    108032.18 
    4240    304.99738   -376990.47            0   -373014.81   -716.97472       107773 
    4250    298.28291   -377017.11            0   -373128.96   -198.83265    107516.41 
    4260    298.38857   -377034.83            0   -373145.31    204.20965    107295.47 
    4270    304.05654   -377036.52            0   -373073.11    422.47748    107150.53 
    4280    299.31831   -377029.23            0   -373127.59    494.16036    107040.29 
    4290    301.06901   -377024.04            0   -373099.58    514.49592    106957.16 
    4300    301.39627    -377023.9            0   -373095.17    84.756502    107012.93 
    4310    298.20347   -377026.26            0   -373139.15   -889.43789    107235.02 
    4320    301.48253   -377043.87            0   -373114.02   -1104.5919    107193.51 
    4330    298.76343   -377072.69            0   -373178.28   -757.34464    106937.83 
    4340    306.88154   -377098.21            0   -373097.98   -383.61312    106710.53 
    4350    295.96724   -377122.48            0   -373264.52    71.583618    106448.48 
    4360    306.81149   -377143.52            0   -373144.21    517.91636    106253.22 
    4370    300.53308   -377157.32            0   -373239.85    793.23352    106101.56 
    4380    296.86324    -377165.1            0   -373295.46    645.31085    106115.45 
    4390    301.73539   -377174.53            0   -373241.39   -170.30437    106375.28 
    4400    295.90435   -377175.28            0   -373318.15   -1768.3096    106892.85 
    4410    303.46328   -377197.04            0   -373241.37   -1438.6478    106792.72 
    4420    298.63041    -377218.3            0   -373325.63   -496.91299    106480.57 
    4430    302.28004   -377223.49            0   -373283.25   -9.0221694    106353.52 
    4440    296.70278   -377223.94            0    -373356.4    406.19878    106234.21 
    4450    298.98798   -377222.19            0   -373324.86    717.86196    106159.59 
    4460     304.6748   -377222.27            0    -373250.8    782.81915    106158.84 
    4470    300.35031   -377229.21            0   -373314.12    146.19237    106361.96 
    4480    295.61393   -377242.65            0    -373389.3   -1053.9172    106750.22 
    4490    300.13128   -377283.73            0   -373371.49   -814.78905     106659.6 
    4500    297.37003   -377326.16            0   -373449.91   -353.59405    106487.17 
    4510     304.4983   -377351.51            0   -373382.35    19.141084    106378.14 
    4520    292.98231   -377364.93            0   -373545.88     410.5865    106219.44 
    4530     307.2778   -377366.38            0   -373360.99    673.04157    106137.53 
    4540    294.52912   -377364.77            0   -373525.56    615.93235    106106.07 
    4550    301.83507   -377365.46            0   -373431.02   -337.93692    106390.89 
    4560    303.10889   -377373.51            0   -373422.46   -1084.5005    106563.28 
    4570    297.17338   -377388.62            0   -373514.94   -991.74092    106408.69 
    4580    302.76481   -377392.35            0   -373445.79   -430.97712     106097.6 
    4590    298.85894   -377382.02            0   -373486.37    295.04749    105701.03 
    4600    304.63511   -377367.05            0   -373396.11    749.80839    105415.83 
    4610    300.69421   -377360.33            0   -373440.76    698.84418    105289.18 
    4620    298.22196   -377370.25            0    -373482.9    206.27437    105307.18 
    4630    302.50798   -377388.37            0   -373445.16   -452.76961    105391.22 
    4640    298.47824    -377400.1            0   -373509.41   -946.07329    105426.39 
    4650    291.77001   -377404.67            0   -373601.42   -778.64986    105258.14 
    4660    306.86704   -377402.61            0   -373402.57    306.55012    104856.43 
    4670    297.19967   -377389.87            0   -373515.84    1036.8401    104555.29 
    4680    297.83821   -377375.76            0   -373493.41    580.50428    104669.66 
    4690    301.63831   -377371.98            0    -373440.1    42.408995    104812.37 
    4700    299.22481   -377373.98            0   -373473.56   -293.53049    104882.72 
    4710    302.51571   -377374.65            0   -373431.33   -393.00508    104893.62 
    4720    293.42039   -377378.69            0   -373553.93   -92.762147    104755.81 
    4730    313.68599   -377387.79            0   -373298.87    1039.6801    104412.24 
    4740    296.16226   -377393.15            0   -373532.65    1621.6697    104188.05 
    4750     305.3376   -377391.23            0   -373411.13    41.815232    104696.69 
    4760    300.24564   -377390.41            0   -373476.69    -745.2707    104931.75 
    4770     295.5712   -377398.86            0   -373546.06   -487.08325    104828.46 
    4780    301.89514   -377405.35            0   -373470.13     56.26106    104648.18 
    4790    299.55667   -377412.54            0    -373507.8    452.72716    104482.97 
    4800    295.78303   -377413.83            0   -373558.27    599.29766    104392.37 
    4810    304.76221   -377411.09            0   -373438.49    306.67677    104436.64 
    4820     298.4618   -377396.35            0   -373505.88   -1062.7951    104770.45 
    4830    297.62395   -377394.78            0   -373515.23   -1333.0726    104730.57 
    4840    302.28675      -377408            0   -373467.67   -451.24961    104303.17 
    4850    293.49814   -377409.28            0    -373583.5    314.36903    103886.41 
    4860    313.69665   -377396.29            0   -373307.23    659.75345     103665.9 
    4870    294.43279   -377377.48            0   -373539.53    526.66429    103532.55 
    4880    301.50213   -377359.95            0   -373429.85   -150.70625    103601.76 
    4890     302.5044   -377338.27            0    -373395.1   -799.02248    103653.17 
    4900    290.46702   -377328.63            0   -373542.37    -769.7483    103449.37 
    4910     304.6043   -377326.29            0   -373355.74   -81.277896    103086.03 
    4920    296.24829   -377325.37            0   -373463.75    785.94741    102641.92 
    4930    302.48285   -377319.63            0   -373376.74    910.67733    102464.22 
    4940    301.36656   -377307.64            0    -373379.3    229.12905    102531.17 
    4950    300.90919   -377288.73            0   -373366.35   -636.12997    102666.97 
    4960    301.86595   -377278.47            0   -373343.62     -795.916    102600.89 
    4970    293.10129   -377283.82            0   -373463.23   -99.580796    102276.37 
    4980    309.63706   -377302.13            0   -373265.98    638.92074    101998.62 
    4990    297.80697   -377319.47            0   -373437.53     727.4782    101891.52 
    5000    302.21787   -377312.39            0   -373372.95   -137.06259    102142.49 
    5010     299.0608   -377279.05            0   -373380.77   -1164.0288    102464.47 
    5020    298.32899   -377258.13            0   -373369.39   -896.77555    102396.15 
    5030    303.98924   -377258.34            0   -373295.81    653.02755    101955.92 
    5040    299.88441   -377262.99            0   -373353.98    860.41168    101917.85 
    5050    305.34557   -377274.24            0   -373294.03    197.57261    102160.45 
    5060    292.71831   -377276.38            0   -373460.77   -222.56587    102310.24 
    5070    301.78488   -377267.23            0   -373333.43   -386.54815    102414.48 
    5080    299.25969   -377255.43            0   -373354.55   -219.77128     102381.3 
    5090    299.24234   -377245.19            0   -373344.55    517.75868    102182.33 
    5100    305.88503   -377242.94            0    -373255.7    1593.1962    101890.71 
    5110     299.8157   -377248.15            0   -373340.03    940.36492     102085.5 
    5120    300.71907   -377257.03            0   -373337.13   -107.55843    102393.51 
    5130    300.82113   -377269.33            0    -373348.1   -606.69404    102525.78 
    5140    298.63832   -377281.67            0   -373388.89   -546.72551    102487.53 
    5150    300.70268   -377290.22            0   -373370.54   -174.00193    102345.19 
    5160    296.31449   -377300.39            0   -373437.91    265.36371    102137.97 
    5170    300.78413   -377307.96            0   -373387.22    549.44627    101981.32 
    5180      297.636   -377308.16            0   -373428.45    658.20692    101857.01 
    5190    301.68932   -377296.72            0   -373364.18   -75.778321    101987.53 
    5200    299.63063   -377277.53            0   -373371.82   -1222.8902    102217.67 
    5210    299.46671   -377280.84            0   -373377.27   -1070.8973    102039.36 
    5220    300.44269   -377307.36            0   -373391.07   -103.15176    101607.06 
    5230    295.49922   -377338.17            0   -373486.32     391.2903    101301.95 
    5240    301.57275   -377359.47            0   -373428.45    405.70293    101163.98 
    5250    297.86695   -377364.62            0    -373481.9   -14.123288    101154.56 
    5260     301.1243   -377361.04            0   -373435.86   -526.00051    101204.18 
    5270    299.54694    -377365.5            0   -373460.89   -460.42124    101089.14 
    5280    296.73225   -377378.89            0   -373510.96    395.19672    100763.05 
    5290    300.67612   -377394.44            0   -373475.11    1286.9978    100467.97 
    5300    297.22268   -377405.99            0   -373531.67    530.49348    100662.86 
    5310    301.58772   -377405.74            0   -373474.52   -765.36158    101054.51 
    5320    296.37694   -377408.74            0   -373545.44   -461.29417    100976.65 
    5330    303.99764   -377396.25            0   -373433.62   -15.103734    100905.41 
    5340    299.92085   -377379.89            0    -373470.4    301.94253    100862.84 
    5350    300.39877   -377370.94            0   -373455.22     308.4414    100930.38 
    5360    306.59017   -377369.37            0   -373372.94   -35.398659    101122.51 
    5370    292.42513   -377362.68            0    -373550.9   -859.05396     101435.5 
    5380    300.87147   -377355.84            0   -373433.95   -1214.0818     101657.4 
    5390    302.17442   -377363.02            0   -373424.15   -489.92433    101540.97 
    5400    300.16834   -377372.96            0   -373460.24    402.72844    101384.96 
    5410    298.40515   -377381.49            0   -373491.75    761.96608    101407.86 
    5420    299.47039   -377397.56            0   -373493.93    522.68605    101587.29 
    5430    298.37441   -377411.94            0    -373522.6    79.310647    101791.67 
    5440    297.45273   -377412.59            0   -373535.27    -74.70543    101899.18 
    5450    301.42437   -377403.75            0   -373474.66   -149.63569    101982.07 
    5460    295.19329   -377398.11            0   -373550.24   -146.75518    102006.96 
    5470    299.82368   -377400.81            0   -373492.58   -49.078754    102002.71 
    5480    304.49993   -377406.45            0   -373437.26    253.46506    101912.58 
    5490    298.51152   -377406.63            0   -373515.51    625.65024    101747.56 
    5500    302.65145   -377400.22            0   -373455.13    643.59698    101669.21 
    5510    298.85954   -377387.31            0   -373491.66    172.16779    101711.23 
    5520    298.37519   -377377.16            0   -373487.82   -701.42735    101865.15 
    5530    302.35155    -377373.8            0   -373432.63   -1327.4449    101942.01 
    5540     300.4016   -377382.93            0   -373467.17   -905.48124    101673.61 
    5550    300.45115   -377390.81            0    -373474.4   -6.6869452    101254.73 
    5560     300.8018   -377389.08            0   -373468.11    330.62139    101010.04 
    5570    299.79165   -377388.26            0   -373480.45    371.90165    100866.44 
    5580    298.41311   -377387.43            0   -373497.59    217.76037    100803.56 
    5590    301.55696    -377379.1            0   -373448.28   -166.13102    100843.53 
    5600    295.43339   -377352.58            0   -373501.58   -1172.4706    101083.36 
    5610    299.24918   -377341.23            0   -373440.49   -1129.0968    101022.71 
    5620    304.08981    -377355.8            0   -373391.96    312.10901    100544.48 
    5630     300.3312   -377357.28            0   -373442.44    924.89465    100328.21 
    5640    305.68542   -377348.42            0   -373363.78    443.62618    100474.36 
    5650    291.94842   -377339.25            0   -373533.68    -203.2544    100653.92 
    5660     303.9225   -377331.69            0   -373370.04   -462.16683     100793.7 
    5670    300.60143   -377327.75            0   -373409.38   -198.68113    100781.53 
    5680    296.28336   -377318.66            0   -373456.59    3.8023647    100818.83 
    5690    301.59378   -377308.89            0   -373377.59      75.1625    100942.54 
    5700    301.97406   -377312.16            0    -373375.9    143.91654    101064.79 
    5710    301.06437   -377325.04            0   -373400.64    174.64314    101203.02 
    5720    299.67264   -377339.64            0   -373433.38    73.865232    101384.32 
    5730     301.5205   -377346.45            0   -373416.11   -360.69119    101676.94 
    5740    298.44745   -377342.81            0   -373452.52   -871.53621     101980.9 
    5750    301.16017   -377332.38            0   -373406.74   -996.71308    102162.16 
    5760    298.87629   -377326.58            0    -373430.7   -468.13182    102109.37 
    5770    298.79136   -377330.25            0   -373435.48     511.1532    101885.32 
    5780    302.84884   -377337.05            0   -373389.39    783.25464    101863.59 
    5790    298.74616   -377342.04            0   -373447.86    462.10545    101998.23 
    5800    299.35258   -377335.28            0   -373433.19    175.41151    102115.66 
    5810    299.15786   -377318.08            0   -373418.54   -27.377097    102176.07 
    5820     298.0619   -377300.01            0   -373414.74   -232.34252     102206.9 
    5830    303.86908   -377282.53            0   -373321.57   -828.37365    102360.21 
    5840     298.7501   -377275.25            0   -373381.01   -1331.5256    102455.45 
    5850    300.51425    -377289.3            0   -373372.07   -823.26525    102228.24 
    5860    295.47449   -377303.86            0   -373452.32   -7.0513173    101882.81 
    5870    307.10708   -377304.56            0   -373301.39    413.41144    101682.16 
    5880    294.23248   -377298.44            0    -373463.1      548.704    101512.76 
    5890    300.88223   -377285.54            0   -373363.51     370.2834    101480.78 
    5900    303.07567   -377277.11            0    -373326.5    36.743743    101489.66 
    5910    294.49703   -377280.83            0   -373442.03   -214.60636    101440.33 
    5920    306.26776   -377279.72            0   -373287.49   -401.44961    101412.11 
    5930    304.21573   -377268.79            0   -373303.32   -445.95953    101327.31 
    5940    296.11611   -377253.99            0   -373394.09   -262.72456    101176.46 
    5950    302.49381   -377247.54            0   -373304.51    417.68059    100926.12 
    5960    301.80974   -377253.02            0   -373318.91    1141.9822    100677.37 
    5970    299.13351   -377268.39            0   -373369.16    1110.7307    100673.08 
    5980    301.95032   -377286.27            0   -373350.32    503.87531    100869.89 
    5990    296.16392   -377299.78            0   -373439.26    -16.15005    101043.38 
    6000    307.98887   -377306.71            0   -373292.05   -227.56107    101169.05 
    6010    296.97472   -377309.01            0   -373437.92   -282.98748    101226.35 
    6020    303.36054   -377308.36            0   -373354.03   -237.18522    101307.49 
    6030    297.59051   -377310.54            0   -373431.42    48.387226    101312.28 
    6040    298.15688   -377314.95            0   -373428.46    622.84303    101245.35 
    6050    304.77538   -377312.93            0   -373340.16    1006.5015    101245.79 
    6060     299.8714   -377301.46            0   -373392.61     658.4251    101446.05 
    6070    303.77404   -377276.61            0   -373316.89   -155.46112    101806.93 
    6080    298.36435   -377251.18            0   -373361.97    -686.7591     102056.7 
    6090    299.89696   -377231.71            0   -373322.53   -818.67464    102193.65 
    6100    297.59063   -377222.09            0   -373342.97   -797.36947    102270.25 
    6110    299.32137   -377223.79            0   -373322.11    -587.0668    102278.26 
    6120    299.81909   -377230.35            0   -373322.19   -227.84369    102221.15 
    6130    296.43525   -377233.54            0   -373369.48    237.60175    102119.36 
    6140     309.0007   -377238.18            0   -373210.33    628.42481    102053.23 
    6150    296.46229   -377245.09            0   -373380.68    945.88217    101967.96 
    6160    301.48403   -377256.92            0   -373327.05    1040.7024     101974.1 
    6170    303.33201   -377266.11            0   -373312.15     890.4272    102026.86 
    6180    296.76648   -377266.17            0    -373397.8    394.50443     102143.4 
    6190    302.84117   -377254.97            0   -373307.41   -192.00564    102283.91 
    6200    297.05678   -377246.68            0   -373374.52   -379.04956    102258.31 
    6210     304.9904   -377247.11            0   -373271.53   -422.96927    102208.19 
    6220     299.2609   -377260.66            0   -373359.77   -405.74275    102110.01 
    6230    302.04675   -377276.68            0   -373339.48   -415.03037    102022.93 
    6240    302.52337   -377285.82            0   -373342.41   -545.48704     101944.1 
    6250    299.47825   -377286.95            0   -373383.22   -123.94803    101667.45 
    6260     302.1825   -377284.66            0   -373345.69    609.44831    101305.84 
    6270    296.03681   -377289.84            0   -373430.98    814.26007    101102.62 
    6280    304.38848   -377307.76            0   -373340.04    678.90497    101033.54 
    6290    298.76749   -377328.12            0   -373433.66    479.34154    100967.11 
    6300    303.12955   -377339.28            0   -373387.96    159.74171    100964.45 
    6310    293.59629    -377343.9            0   -373516.85   -342.99625    100985.44 
    6320    307.60844   -377328.66            0   -373318.96   -1637.4778    101295.23 
    6330    297.46536   -377324.91            0   -373447.42   -1561.7777    101165.77 
    6340     298.5813      -377334            0   -373441.97   -85.275422    100649.72 
    6350     305.1253   -377334.59            0   -373357.26    547.36204    100393.34 
    6360    297.96735    -377330.9            0   -373446.87     699.2464    100257.76 
    6370    301.58038   -377325.26            0   -373394.13    427.78694    100276.11 
    6380    300.66713   -377320.66            0   -373401.44   -76.985618    100370.33 
    6390    296.28595   -377309.48            0   -373447.37   -973.87876    100601.09 
    6400    300.06029   -377283.22            0   -373371.91   -2111.5682    100955.95 
    6410     294.6167   -377290.41            0   -373450.06   -1025.6616    100620.46 
    6420    306.16572   -377292.23            0   -373301.33   -32.705511    100347.69 
    6430    299.88099   -377283.09            0   -373374.12    571.64136    100181.81 
    6440    305.44073   -377274.23            0   -373292.79     776.8183    100159.62 
    6450      298.587   -377280.52            0   -373388.41     553.1179    100229.85 
    6460    299.09631   -377301.35            0   -373402.61    2.7857288    100396.51 
    6470    303.26263   -377314.24            0   -373361.18    -1016.977    100709.95 
    6480    296.81662   -377305.62            0   -373436.59   -1886.3211    100973.52 
    6490    301.62404   -377298.68            0   -373366.99   -933.16457    100702.15 
    6500    296.97154   -377281.41            0   -373410.36   -81.096058    100430.86 
    6510    300.47479    -377264.8            0   -373348.09    292.75542    100298.76 
    6520    301.72285   -377258.94            0   -373325.96    570.98283    100183.47 
    6530     299.7798   -377265.74            0   -373358.08    680.62274    100109.49 
    6540    299.79578   -377278.07            0   -373370.21    491.06165    100120.88 
    6550    299.40499   -377272.33            0   -373369.56   -594.56776    100402.75 
    6560    298.47402   -377247.08            0   -373356.44   -1674.6004    100694.89 
    6570    298.68941   -377247.98            0   -373354.54    -646.8862    100344.12 
    6580    301.41827   -377246.28            0   -373317.27   -165.70368    100161.88 
    6590    297.97347   -377259.17            0   -373375.06    248.12781    99980.766 
    6600    305.06595    -377282.6            0   -373306.04    581.52722    99828.429 
    6610    298.11989   -377298.94            0   -373412.92    546.91319    99752.627 
    6620     298.0363   -377293.62            0   -373408.69   -385.13906      99953.7 
    6630    300.49732   -377273.07            0   -373356.06   -1373.4208     100182.5 
    6640    295.32936   -377270.53            0   -373420.88    -1044.306    99997.345 
    6650    300.92194   -377277.66            0   -373355.12    -182.3149    99674.907 
    6660    300.33327   -377286.84            0   -373371.97    209.85557    99486.078 
    6670    301.67521   -377300.93            0   -373368.57    381.68802     99358.17 
    6680    300.48092   -377307.38            0   -373390.58    356.85515    99300.915 
    6690    300.13374   -377307.28            0   -373395.01    -52.33564    99360.189 
    6700    303.50607   -377299.39            0   -373343.16   -852.40804    99546.832 
    6710    292.78442   -377302.33            0   -373485.86   -1264.9713    99597.762 
    6720    301.06927      -377327            0   -373402.53   -521.64693    99347.467 
    6730    296.20279   -377359.18            0   -373498.15    568.38512    98973.721 
    6740    300.94045   -377383.51            0   -373460.73      814.795    98846.077 
    6750    298.99375    -377386.1            0   -373488.69    465.75201    98887.599 
    6760    297.55346    -377373.7            0   -373495.07    26.981521    98965.182 
    6770    302.07479   -377363.11            0   -373425.54   -80.871789    98953.166 
    6780    297.13623   -377355.85            0   -373482.66   -113.00909     98905.73 
    6790    300.52073   -377350.97            0   -373433.65   -87.414261    98850.983 
    6800     300.5417   -377352.88            0   -373435.29    89.772506    98750.339 
    6810    300.65212   -377360.54            0   -373441.52    400.31133    98620.971 
    6820    301.89593    -377366.4            0   -373431.16    449.82793    98581.607 
    6830    295.30031   -377366.78            0   -373517.51   -45.580883    98695.464 
    6840    307.78344   -377363.11            0   -373351.13   -892.57486    98941.023 
    6850    294.92883   -377370.52            0    -373526.1   -1108.4445    98952.137 
    6860    302.09499   -377393.29            0   -373455.46   -240.38639    98691.164 
    6870    299.42525   -377414.99            0   -373511.96    734.83857    98387.859 
    6880    303.76009   -377421.03            0   -373461.49    502.80678    98439.117 
    6890    303.55749    -377419.9            0      -373463     136.0853    98520.053 
    6900    293.74031   -377417.93            0      -373589   -143.27046    98560.017 
    6910     303.5991   -377413.59            0   -373456.15   -393.26557    98632.616 
    6920    298.46667   -377407.93            0   -373517.39   -462.15068    98638.036 
    6930    301.36241   -377401.63            0   -373473.35    221.34787    98458.225 
    6940    296.41391      -377406            0   -373542.22    1279.4547    98144.881 
    6950    301.77002   -377412.29            0   -373478.69    1107.1858    98193.402 
    6960    301.38565   -377409.89            0   -373481.31    229.66055    98454.386 
    6970    296.09201   -377403.44            0   -373543.86   -450.97703    98659.956 
    6980    300.94202   -377400.87            0   -373478.07   -582.95162    98720.179 
    6990    294.73039   -377404.85            0   -373563.02   -200.80558    98597.599 
    7000    302.16635   -377408.59            0   -373469.83    37.180699    98534.112 
    7010    300.70786   -377416.51            0   -373496.76    123.99027    98493.833 
    7020    297.60624   -377421.74            0   -373542.42    138.94322    98474.425 
    7030    302.54559   -377419.81            0    -373476.1    92.027602    98502.223 
    7040    298.13169   -377417.45            0   -373531.28   -68.225799    98554.191 
    7050    297.46975   -377414.05            0   -373536.51   -445.85069    98675.476 
    7060    303.51399   -377412.09            0   -373455.76   -613.64314    98746.121 
    7070    293.11506   -377415.52            0   -373594.74   -339.94821    98653.636 
    7080    300.74126   -377418.97            0   -373498.78    381.83511    98465.008 
    7090    295.67553   -377420.25            0    -373566.1    1364.2283    98192.903 
    7100    307.56364   -377424.58            0   -373415.46    1291.0416    98235.513 
    7110     300.0999   -377426.79            0   -373514.96    143.80191    98529.704 
    7120    295.55004   -377425.16            0   -373572.65   -280.44242    98618.452 
    7130    300.56913   -377418.68            0   -373500.74   -377.64277     98623.39 
    7140    295.88696   -377411.19            0   -373554.28   -272.69004    98547.272 
    7150    302.56485   -377407.57            0   -373463.61    2.7031257     98432.54 
    7160    300.54861   -377411.79            0   -373494.12    634.56523    98197.661 
    7170    296.47127   -377416.87            0   -373552.34    1396.9414    97928.714 
    7180    305.48378    -377414.9            0   -373432.89    1049.3659    98002.295 
    7190    298.59901   -377400.94            0   -373508.68    162.39256    98202.646 
    7200    296.98254   -377378.74            0   -373507.55   -524.74461    98347.942 
    7210    301.58771   -377360.15            0   -373428.93   -736.87683    98358.092 
    7220    298.88649   -377364.63            0   -373468.62   -446.86626    98191.209 
    7230     298.9101   -377379.87            0   -373483.55    11.017709    97978.295 
    7240    301.23632    -377388.1            0   -373461.46    229.78868    97842.759 
    7250    295.86193   -377381.38            0   -373524.79    155.58085    97782.404 
    7260     301.0766   -377369.33            0   -373444.77    44.992193    97741.446 
    7270    294.85104   -377352.44            0   -373509.03   -25.848332    97672.753 
    7280    308.07688   -377339.76            0   -373323.95   -171.18584     97672.24 
    7290    296.09262   -377347.56            0   -373487.97   -350.56644    97646.133 
    7300    303.12583   -377373.25            0   -373421.98   -315.46168    97601.264 
    7310     298.2781   -377403.05            0   -373514.97    136.35861     97428.11 
    7320    299.83941   -377417.92            0   -373509.49    957.66575    97169.851 
    7330    303.28682   -377409.31            0   -373455.95    1392.2314    97032.925 
    7340    297.77424   -377386.01            0    -373504.5    548.91793    97261.501 
    7350    299.53209   -377367.34            0   -373462.92   -459.50086    97567.486 
    7360    301.93202   -377379.36            0   -373443.66   -461.22951    97583.604 
    7370    291.03655   -377404.56            0   -373610.87   -217.79991    97506.226 
    7380    305.97616   -377424.55            0   -373436.13    92.073483    97461.241 
    7390    290.29306   -377427.46            0   -373643.47    466.89792    97358.556 
    7400    304.14489    -377420.6            0   -373456.04    663.30906     97346.91 
    7410    299.00943   -377415.35            0   -373517.74    352.35041    97429.656 
    7420    298.46447   -377413.72            0   -373523.21    -467.6632    97661.376 
    7430    303.80893   -377421.32            0   -373461.15   -1013.5974    97821.007 
    7440    292.09647   -377437.83            0   -373630.33   -954.98488    97771.711 
    7450     302.0597    -377447.8            0   -373510.43    -465.3987    97637.019 
    7460    301.04497   -377443.97            0   -373519.82    124.75921    97459.187 
    7470     296.9833   -377430.37            0   -373559.17     474.8879    97354.259 
    7480    303.00768   -377422.77            0   -373473.04      356.124    97387.059 
    7490    299.28299   -377432.48            0    -373531.3    138.23648    97412.463 
    7500    304.85526   -377443.07            0   -373469.26   -51.046143    97453.069 
    7510    297.84078   -377446.61            0   -373564.23   -159.69026    97461.428 
    7520    298.69387   -377446.95            0   -373553.46   -224.83879    97470.339 
    7530    304.89767   -377451.99            0   -373477.62   -332.82267      97489.7 
    7540    296.40215   -377464.44            0   -373600.81    127.92144    97319.912 
    7550    302.92644   -377478.04            0   -373529.36    892.31365     97082.12 
    7560    300.67867   -377489.23            0   -373569.86    1343.5274     96910.65 
    7570    294.73639   -377490.94            0   -373649.03      713.703    97030.958 
    7580    303.15347   -377479.24            0   -373527.61   -304.17797    97283.594 
    7590     301.1803   -377464.79            0   -373538.88   -485.41111    97291.558 
    7600    298.88006   -377450.01            0   -373554.08   -275.49402    97197.888 
    7610    304.00226    -377441.5            0   -373478.81   -96.596841    97129.013 
    7620     298.3012   -377449.31            0   -373560.93    153.83782    97025.154 
    7630    301.31822   -377465.38            0   -373537.67    403.70817     96941.29 
    7640    301.28634   -377478.59            0    -373551.3    453.20561    96905.037 
    7650    298.35384   -377476.95            0   -373587.89   -40.757206    97022.373 
    7660     303.9108   -377463.67            0   -373502.17   -671.03835     97190.59 
    7670    298.67225   -377449.75            0   -373556.53   -983.26807    97239.945 
    7680    290.66654   -377445.37            0   -373656.51   -733.50266     97112.62 
    7690    304.88287    -377453.6            0   -373479.43    206.01098    96816.809 
    7700    299.71142   -377463.99            0   -373557.22    990.75503    96521.604 
    7710     297.6181    -377464.2            0   -373584.72    771.00103    96508.295 
    7720    302.94468   -377451.37            0   -373502.46    172.29835    96622.207 
    7730    298.34479   -377431.78            0   -373542.83   -174.46236    96664.414 
    7740    300.47884   -377410.53            0   -373493.76   -302.81972     96676.94 
    7750    296.85644   -377396.94            0   -373527.39   -290.27896    96641.178 
    7760    304.14117   -377401.28            0   -373436.77    -165.1529    96563.264 
    7770    292.84346   -377420.95            0   -373603.71     570.8955    96271.095 
    7780    304.04269   -377432.98            0   -373469.76    1459.3383    95992.438 
    7790    299.61172   -377435.08            0   -373529.62    1196.0889    96009.761 
    7800    303.28823   -377434.66            0   -373481.27    250.87422     96225.41 
    7810    298.82421   -377434.74            0   -373539.54   -313.75324    96323.384 
    7820    300.94033   -377428.32            0   -373505.54   -431.55942     96312.88 
    7830    300.82928   -377411.64            0   -373490.31   -288.07223    96231.385 
    7840    297.18448   -377394.82            0      -373521    28.204719    96098.556 
    7850    301.98664   -377389.69            0   -373453.27    690.45677    95893.025 
    7860    297.95066   -377392.35            0   -373508.54    1454.6859     95659.35 
    7870    302.39648   -377390.03            0   -373448.27    687.44544    95855.837 
    7880    297.73699   -377376.97            0   -373495.94   -521.84473    96157.089 
    7890    298.43601   -377366.27            0   -373476.13   -740.83489    96187.936 
    7900    300.85035   -377361.11            0    -373439.5   -421.99002    96070.055 
    7910    299.01647   -377361.25            0   -373463.54    17.611858    95912.384 
    7920    304.96974    -377368.4            0   -373393.09     436.3249    95773.449 
    7930    299.31801   -377381.23            0    -373479.6    1187.9759    95522.996 
    7940    302.34928   -377385.16            0   -373444.01    805.23413    95596.569 
    7950    293.44119   -377371.82            0   -373546.79   -768.90708    95979.813 
    7960    303.61607   -377359.88            0   -373402.22   -935.95614    96018.953 
    7970     293.5396   -377351.66            0   -373525.35   -470.95556    95854.162 
    7980    306.56397   -377343.38            0    -373347.3    80.412859    95713.168 
    7990    296.47864   -377341.22            0    -373476.6    600.64717    95540.485 
    8000    301.68358    -377344.5            0   -373412.03    847.43016     95459.59 
    8010    300.64303    -377344.2            0   -373425.29    422.58216    95555.438 
    8020     297.0505   -377327.82            0   -373455.75   -1208.7464     95982.23 
    8030    300.50109   -377328.81            0   -373411.76   -1205.1451    95963.226 
    8040    296.51674   -377337.74            0   -373472.62    -585.3234    95752.834 
    8050    303.03347   -377346.19            0   -373396.12    84.575023    95541.131 
    8060    299.97802   -377354.06            0   -373443.82    667.90679    95341.401 
    8070    295.84223   -377357.86            0   -373501.53    906.64527    95240.284 
    8080     307.4323    -377355.4            0      -373348    630.40536    95309.882 
    8090     298.6005   -377338.57            0   -373446.29   -864.83948    95672.719 
    8100    300.64372   -377318.97            0   -373400.05   -1697.7987     95881.57 
    8110    296.26347   -377322.64            0   -373460.82   -837.78555    95623.778 
    8120    300.73182   -377331.24            0   -373411.18   -180.00824    95439.093 
    8130    300.40626   -377351.87            0   -373436.05    441.49663    95246.745 
    8140    301.25674    -377370.2            0    -373443.3    837.91377    95116.454 
    8150    300.22173    -377374.9            0   -373461.49    792.03221    95105.677 
    8160    298.38703   -377364.85            0   -373475.35    179.31116    95245.003 
    8170    302.56078   -377338.06            0   -373394.15   -1324.6416    95640.329 
    8180     295.6541   -377337.79            0   -373483.91   -1234.9835    95577.657 
    8190    301.40856   -377359.08            0   -373430.19   -520.74307    95357.614 
    8200    296.07118   -377386.71            0    -373527.4    25.992976    95159.874 
    8210    298.30312   -377410.48            0   -373522.07    550.05219    94969.327 
    8220    308.18816   -377421.88            0   -373404.62    765.48062    94861.154 
    8230     295.5948   -377415.59            0   -373562.49      317.064    94895.268 
    8240    300.70303   -377392.06            0   -373472.37   -1152.6674    95237.019 
    8250    299.82776   -377380.06            0   -373471.78   -1714.2057    95326.223 
    8260    297.80481   -377403.57            0   -373521.66    -462.4654    94918.614 
    8270    303.53673   -377425.75            0   -373469.12    105.61886     94715.22 
    8280    296.75141   -377448.94            0   -373580.76    492.63497    94544.259 
    8290    301.52088   -377466.46            0   -373536.11     509.9437    94483.424 
    8300    300.43826   -377471.28            0   -373555.05    41.890935     94539.68 
    8310    293.10105   -377455.94            0   -373635.34   -1176.6232    94798.777 
    8320    305.26725   -377441.12            0   -373461.94   -1616.0646    94894.872 
    8330    299.64569   -377451.82            0   -373545.92   -376.65362    94505.661 
    8340    295.02324   -377462.62            0   -373616.96    499.45536    94207.089 
    8350    308.49351   -377470.91            0   -373449.67    558.51185    94154.492 
    8360    299.30801   -377479.18            0   -373577.68    250.10169    94169.156 
    8370    297.77537   -377485.81            0   -373604.29   -288.43494    94262.402 
    8380    302.27174   -377487.21            0   -373547.07   -862.93596    94384.162 
    8390    298.43853   -377488.31            0   -373598.14   -892.85469    94361.572 
    8400    298.32563   -377494.46            0   -373605.76    332.16315    94027.087 
    8410    302.04148   -377494.18            0   -373557.04    1371.2144    93745.647 
    8420    297.98523   -377490.87            0   -373606.61    636.23608    93903.448 
    8430     301.9985   -377491.85            0   -373555.28     39.00785    94044.775 
    8440     296.2847   -377498.05            0   -373635.95   -248.33576    94097.321 
    8450    299.24592   -377501.51            0   -373600.82   -446.31051    94153.413 
    8460    306.34351   -377501.25            0   -373508.04   -296.30327    94127.622 
    8470    293.86585   -377498.98            0   -373668.42    466.98012    93908.411 
    8480    301.10938   -377499.18            0    -373574.2    1224.9696    93711.567 
    8490    303.76141   -377508.95            0   -373549.39    638.58963    93836.636 
    8500    292.32542   -377518.36            0   -373707.88   -464.83162    94081.246 
    8510     301.3371   -377525.57            0   -373597.61   -1007.0977    94231.538 
    8520    303.18831   -377532.69            0    -373580.6   -656.23617    94149.724 
    8530     298.3389   -377532.23            0   -373643.36    78.637725    93967.835 
    8540     303.0731   -377524.68            0   -373574.09    370.05193    93918.891 
    8550     299.5659   -377524.98            0   -373620.11    224.69406     93964.22 
    8560    299.58696   -377537.91            0   -373632.77    43.485908     94024.39 
    8570    303.41808   -377557.92            0   -373602.84   -99.339541     94079.52 
    8580    298.63262   -377574.73            0   -373682.03   -185.78115    94094.316 
    8590    303.21389    -377573.9            0   -373621.49   -216.61017    94105.939 
    8600    297.60503   -377563.86            0   -373684.56    303.61013     93957.72 
    8610    298.16438   -377550.56            0   -373663.97    919.19242    93797.822 
    8620    307.77274   -377545.05            0    -373533.2    983.06873    93791.001 
    8630     294.6232   -377546.37            0   -373705.94    59.447311    93996.513 
    8640    304.97472    -377542.3            0   -373566.93   -1036.9685    94287.185 
    8650    299.16703   -377545.85            0   -373646.18   -821.39675        94196 
    8660    297.56571   -377545.92            0   -373667.12   -164.73186    93981.608 
    8670    303.16619   -377537.63            0   -373585.84    236.54739    93834.429 
    8680    298.88117   -377529.54            0    -373633.6    440.01797    93708.412 
    8690    295.99826    -377524.2            0   -373665.84    324.77216    93651.771 
    8700     307.8598   -377522.58            0    -373509.6   -155.72752    93699.775 
    8710    296.02677   -377527.12            0   -373668.39   -759.19395      93727.6 
    8720    296.45716   -377540.92            0   -373676.58   -859.48522    93637.215 
    8730    301.71166   -377554.78            0   -373621.94   -189.48964    93371.715 
    8740    296.75905   -377556.81            0   -373688.53    851.07577     93014.66 
    8750    303.16655   -377550.97            0   -373599.17    1069.5619    92875.536 
    8760    301.14147    -377537.7            0   -373612.29    234.29113    92999.879 
    8770    297.72709    -377525.6            0    -373644.7   -717.85172    93155.157 
    8780    304.17398   -377527.72            0   -373562.78    -791.8682    93098.135 
    8790    298.09955   -377532.85            0    -373647.1   -198.75744    92864.657 
    8800    300.71874   -377529.09            0    -373609.2    328.85945    92684.534 
    8810    301.62823   -377519.25            0    -373587.5    551.35696    92600.517 
    8820    298.15567   -377510.11            0   -373623.63    391.68776    92619.861 
    8830    301.50068   -377505.17            0   -373575.09   -432.97922    92828.554 
    8840    295.78074    -377506.5            0   -373650.97   -1661.4929    93131.164 
    8850     300.5777   -377528.41            0   -373610.36   -1054.5344    92990.863 
    8860    299.55611    -377543.7            0   -373638.96    291.91339    92669.264 
    8870    299.96654   -377544.32            0   -373634.23    763.73862     92579.55 
    8880    305.08482   -377541.52            0   -373564.71    648.32947    92654.761 
    8890    298.20583   -377533.17            0   -373646.03    147.98022    92821.951 
    8900    295.28997      -377519            0   -373669.87   -486.10526    93034.567 
    8910    304.71146   -377507.99            0   -373536.05   -973.17301    93225.907 
    8920    295.85694   -377513.56            0   -373657.04   -875.77028    93231.524 
    8930    299.87119   -377530.29            0   -373621.44   -67.037072    93068.929 
[...]
   47870    295.37598   -380205.82            0   -376355.57   -1041.7404    51415.055 
   47880    300.40377   -380234.81            0   -376319.02    1528.8154    51221.093 
   47890    301.52123   -380252.21            0   -376321.86   -793.67844    51348.156 
   47900    297.90561   -380267.79            0   -376384.57   -907.65475    51330.313 
   47910    304.37579   -380277.67            0    -376310.1     2657.407    51089.825 
   47920    297.03824   -380244.14            0   -376372.22   -2906.6413    51450.624 
   47930    299.29153   -380246.12            0   -376344.83    1328.8794    51179.689 
   47940    306.11069   -380231.31            0   -376241.13    63.359656    51282.901 
   47950    294.44902   -380228.61            0   -376390.44   -542.92645    51333.938 
   47960      294.769   -380243.56            0   -376401.23    699.58986    51271.121 
   47970    303.57855   -380252.51            0   -376295.34   -688.64959    51385.442 
   47980     299.1315   -380265.14            0   -376365.93    297.25445    51329.816 
   47990    299.71946    -380267.1            0   -376360.23    1379.6992    51268.485 
   48000     301.1738   -380241.76            0   -376315.93   -2869.5181    51559.308 
   48010    299.82606   -380258.17            0   -376349.91     2947.617    51172.765 
   48020    304.63273   -380242.83            0   -376271.92   -1917.3515    51493.464 
   48030    295.27991   -380261.41            0   -376412.41    477.62994    51314.113 
   48040    300.86578   -380273.22            0   -376351.41    640.85407     51294.55 
   48050    299.41673    -380277.1            0   -376374.18   -1025.0176     51390.13 
   48060    298.37164   -380285.98            0   -376396.68    780.17994    51257.013 
   48070    305.60957   -380269.54            0   -376285.89   -414.19097    51330.577 
   48080       289.85   -380251.47            0   -376473.25    40.573656    51278.687 
   48090    299.77417    -380234.5            0   -376326.92    160.20729    51268.127 
   48100    303.27083   -380223.69            0   -376270.53   -217.15486    51284.676 
   48110    298.50239   -380224.68            0   -376333.68    119.65152    51246.433 
   48120    301.90702   -380229.48            0    -376294.1   -33.822776    51247.919 
   48130    299.56592   -380235.83            0   -376330.96    20.202168    51234.866 
   48140    299.21443   -380236.63            0   -376336.35    3.3582846    51231.713 
   48150    303.17818   -380231.41            0   -376279.46   -42.437418    51236.381 
   48160    297.87253   -380226.08            0   -376343.28    39.062346    51226.451 
   48170    295.56189   -380220.92            0   -376368.25   -14.595048    51229.624 
   48180    305.84523   -380214.67            0   -376227.95   -10.429392    51243.749 
   48190    299.01202   -380204.78            0   -376307.13    24.570165    51246.807 
   48200    301.57817   -380190.54            0   -376259.44   -105.66974    51268.655 
   48210    298.61041   -380177.84            0   -376285.43    134.15693    51264.407 
   48220     300.3738   -380167.71            0   -376252.31   -182.93484    51303.466 
   48230    304.46887   -380169.82            0   -376201.04   -60.620027    51315.616 
   48240    296.48081   -380181.88            0   -376317.23    510.88424     51289.83 
   48250    307.69988   -380189.94            0   -376179.05   -1006.0515    51422.518 
   48260    294.66553   -380214.14            0   -376373.15    1250.3002    51288.293 
   48270    303.38824   -380219.03            0   -376264.34   -1058.0266    51473.799 
   48280    300.52559   -380231.01            0   -376313.64    186.28545    51410.738 
   48290    291.24023   -380235.31            0   -376438.97     1379.525    51343.303 
   48300    304.53617   -380214.92            0   -376245.26   -2741.3142    51643.611 
   48310    297.58298   -380233.44            0   -376354.43    2841.7615    51272.274 
   48320    300.38278   -380220.69            0   -376305.18   -1312.1425    51552.597 
   48330    298.56111   -380232.53            0   -376340.76    334.99707    51433.961 
   48340    301.26423   -380238.37            0   -376311.37     97.17044    51432.498 
   48350    302.57465    -380238.5            0   -376294.42   -459.92351    51439.018 
   48360    292.38703   -380238.89            0    -376427.6    1013.9619    51292.547 
   48370    304.32642   -380220.65            0   -376253.73   -1946.6556    51456.961 
   48380     297.5058   -380235.27            0   -376357.25    2179.3858    51133.245 
   48390    297.51593   -380231.82            0   -376353.68    -967.1024    51297.892 
   48400    306.08141   -380242.04            0   -376252.24   -1084.5462    51269.401 
   48410    294.36189   -380263.68            0   -376426.65    2502.6642    50985.386 
   48420    300.57587   -380252.57            0   -376334.54   -2077.5302    51253.502 
   48430    302.49845   -380257.05            0   -376313.96    336.38167    51073.606 
   48440    296.16242   -380242.33            0   -376381.83    529.79278    51043.536 
   48450    303.13618   -380217.93            0   -376266.53   -677.94661    51123.029 
   48460    300.28786   -380205.02            0   -376290.74    336.33618    51060.218 
   48470     293.9268   -380196.22            0   -376364.86    610.01622    51050.069 
   48480    305.19675   -380182.12            0   -376203.85   -2648.7469    51290.443 
   48490    289.45329   -380212.63            0   -376439.58    2345.7614    50978.634 
   48500    306.84821   -380223.49            0    -376223.7    103.82556    51169.089 
   48510    297.96807   -380225.83            0    -376341.8   -2212.5489    51355.878 
   48520    300.48357   -380246.41            0   -376329.58    2335.4073    51104.912 
   48530    297.13526   -380228.16            0   -376354.98   -1205.2108    51383.563 
   48540    297.29044   -380216.07            0   -376340.87    261.35763     51337.49 
   48550    302.55429   -380191.67            0   -376247.85    240.32534    51393.685 
   48560     296.3131   -380170.12            0   -376307.65   -337.80107    51471.277 
   48570     305.9471   -380161.57            0   -376173.52    286.09217    51469.965 
   48580    299.46151   -380157.86            0   -376254.35   -185.03345    51521.642 
   48590    304.17948   -380161.21            0   -376196.21    98.396099      51522.7 
   48600    295.73429   -380163.58            0   -376308.66   -35.475703    51530.697 
   48610    300.48563   -380164.96            0    -376248.1    15.049409    51521.292 
   48620    300.17328   -380164.49            0   -376251.71    94.865856    51494.427 
   48630     300.2098   -380159.75            0   -376246.49   -418.98764    51501.732 
   48640    296.11616    -380163.6            0    -376303.7    955.47261    51374.983 
   48650    305.10908   -380156.61            0   -376179.49   -1636.0889    51517.877 
   48660    295.44863    -380178.2            0      -376327    1807.3467     51238.53 
   48670    297.68237   -380183.32            0      -376303   -183.73986    51326.011 
   48680    298.75297   -380181.44            0   -376287.17   -2464.0842    51432.035 
   48690    304.30343   -380203.76            0   -376237.14    3043.0362    51029.994 
   48700      300.504   -380185.59            0    -376268.5   -1306.1455    51269.164 
   48710    295.56179   -380180.74            0   -376328.07    8.5087597    51145.303 
   48720    308.18845   -380173.68            0   -376156.42    700.50619    51085.035 
   48730    296.52117   -380167.62            0   -376302.45   -1047.9872     51173.25 
   48740    298.78704   -380188.68            0   -376293.97    671.68693    51055.497 
   48750    301.14921   -380211.68            0   -376286.17    574.15433    51065.539 
   48760    296.45131    -380223.9            0   -376359.64   -1888.5611    51231.195 
   48770    303.45772   -380248.98            0   -376293.39    2214.4446    50981.998 
   48780     298.3553   -380239.37            0   -376350.29   -679.50788    51180.189 
   48790    303.22181   -380226.51            0   -376273.99    -1626.375    51262.022 
   48800    300.88734   -380234.59            0    -376312.5    2866.1828    50983.483 
   48810    295.67229   -380217.69            0   -376363.57   -2457.3602    51340.451 
   48820    302.94919   -380241.39            0   -376292.43    1108.4901    51115.616 
   48830    299.67797   -380250.24            0   -376343.91    552.74647    51147.453 
   48840    299.78591   -380243.99            0   -376336.25   -1816.5303    51298.502 
   48850    303.98466   -380252.88            0   -376290.41    2520.2005    51010.567 
   48860    292.79815    -380224.5            0   -376407.85   -2391.3178    51319.523 
   48870    307.13023   -380237.66            0    -376234.2    1288.7458    51075.698 
   48880    300.49534   -380247.86            0   -376330.88     644.7776    51092.788 
   48890    296.11549   -380254.87            0   -376394.98    -2344.482    51259.977 
   48900    304.06298   -380291.12            0   -376327.63    2831.5587    50897.896 
   48910    298.28483   -380286.84            0   -376398.68   -1903.4365    51172.692 
   48920    304.86736   -380297.42            0   -376323.45    290.09137    51005.465 
   48930    299.91483   -380294.15            0   -376384.74    914.51907    50936.334 
   48940    297.73092    -380280.2            0   -376399.25   -1217.9108    51047.689 
   48950    302.96496   -380281.81            0   -376332.64    680.20446    50902.384 
   48960    297.68143   -380273.04            0   -376392.74    100.79898    50909.803 
   48970    302.37203    -380263.5            0   -376322.06   -523.92985     50929.98 
   48980    302.60864   -380267.07            0   -376322.55    592.79583    50836.802 
   48990    294.20293   -380270.08            0   -376435.12   -311.31647    50871.102 
   49000    308.79872   -380277.86            0   -376252.64    -838.4652     50906.27 
   49010    296.87746   -380299.74            0   -376429.92    2533.1026     50680.72 
   49020    299.56352   -380295.69            0   -376390.86   -2360.8735    51003.058 
   49030    304.18688   -380323.21            0   -376358.11   -90.064998     50868.98 
   49040    298.02597   -380350.78            0   -376465.98    2537.0241    50709.993 
   49050    297.32849   -380354.56            0   -376478.86   -2227.4961    51032.464 
   49060    306.88487      -380380            0   -376379.73    542.98611    50876.403 
   49070    294.63591   -380381.77            0   -376541.16    376.33323    50894.219 
   49080    300.03611   -380372.27            0   -376461.28   -747.84802    50983.066 
   49090    303.67583   -380371.66            0   -376413.22    763.75339     50895.05 
   49100    296.11943   -380366.78            0   -376506.84   -46.745317    50944.957 
   49110    300.25621   -380359.07            0   -376445.21   -1782.7373    51063.005 
   49120     306.8694   -380373.91            0   -376373.84    2480.8562    50795.309 
   49130    293.98582   -380364.77            0   -376532.64   -893.81323    51000.331 
   49140    299.55376    -380362.1            0   -376457.39   -1828.1742    51058.827 
   49150     308.1713   -380380.76            0   -376363.72    3011.8331    50746.672 
   49160    294.88164   -380373.37            0   -376529.56   -1338.9316    51002.684 
   49170    296.79183   -380377.84            0   -376509.13   -1138.8092    50976.926 
   49180    307.37884   -380386.97            0   -376380.26    2086.5868    50761.815 
   49190    296.02192   -380367.16            0   -376508.49   -1094.4368    50939.047 
   49200     301.0879   -380351.12            0   -376426.42    -281.7771    50872.123 
   49210    303.90152    -380331.8            0   -376370.42    946.15946    50779.936 
   49220    291.83934    -380303.6            0   -376499.45   -793.79195    50870.148 
   49230    305.55462   -380290.08            0   -376307.15   -85.909999     50827.71 
   49240    297.07956    -380287.9            0   -376415.44    1927.3369    50689.212 
   49250    297.29493   -380266.83            0   -376391.57    -3039.724    51007.699 
   49260    303.99659   -380283.91            0   -376321.29    488.21512    50790.163 
   49270    299.25614   -380288.37            0   -376387.54    2472.9118    50670.144 
   49280    296.51663   -380273.76            0   -376408.64   -2418.2533    50994.729 
   49290     305.2995    -380296.1            0   -376316.49    823.57564    50803.779 
   49300    298.29562   -380306.11            0    -376417.8    361.13247    50841.835 
   49310    294.60605   -380309.77            0   -376469.55   -686.39406    50921.579 
   49320    305.18423   -380309.93            0   -376331.83    187.01541    50891.442 
   49330    298.84829   -380295.39            0   -376399.88    38.801408    50915.871 
   49340    299.87905   -380273.69            0   -376364.74   -142.20577    50950.192 
   49350     302.7218   -380253.12            0   -376307.11    208.22833    50952.751 
   49360    296.24513   -380233.73            0   -376372.15   -116.03258    50990.787 
   49370    305.38806   -380221.95            0   -376241.19   -283.48914    51027.529 
   49380    293.18752   -380227.33            0   -376405.61    787.95642    50962.977 
   49390    304.22911    -380235.7            0   -376270.05   -1037.0069    51097.635 
   49400    298.82751   -380261.92            0   -376366.68    666.86386     50985.03 
   49410    300.89966   -380273.85            0    -376351.6    676.73311    50986.185 
   49420    300.40276   -380262.33            0   -376346.56   -2467.7508    51188.298 
   49430    298.15763   -380277.99            0   -376391.48    3351.0008    50801.669 
   49440    302.75891   -380255.36            0   -376308.88   -2167.9927    51159.349 
   49450    297.10819   -380259.46            0   -376386.63   -145.34524    51017.365 
   49460    301.58222   -380260.38            0   -376329.23    1354.0837    50914.716 
   49470    302.48045   -380251.65            0   -376308.79   -672.25216    51035.419 
   49480    298.93255   -380247.36            0   -376350.75    257.78252    50964.614 
   49490    305.67426   -380233.56            0   -376249.07    190.92941    50968.522 
   49500    292.77199   -380213.19            0   -376396.88   -884.26533    51024.911 
   49510    306.16842   -380210.83            0    -376219.9    1474.0216    50880.621 
   49520     296.9264   -380210.48            0   -376340.02   -499.47106    50998.574 
   49530    300.13609   -380226.63            0   -376314.33   -1715.9798    51079.081 
   49540    302.48927   -380267.22            0   -376324.25    3117.4815    50770.167 
   49550    296.00236   -380268.58            0   -376410.17   -2446.7756    51130.415 
   49560    308.65443   -380287.19            0   -376263.86    325.25773    50967.144 
   49570    295.58603   -380280.76            0   -376427.77    908.22229    50931.942 
   49580    301.44732   -380259.63            0   -376330.24   -802.49766    51060.919 
   49590    300.43191   -380250.01            0   -376333.85    532.63723    50987.684 
   49600    296.06268   -380238.36            0   -376379.16   -108.28436    51042.113 
   49610    302.09986   -380232.16            0   -376294.27   -571.88755    51091.788 
   49620    298.60259   -380241.39            0   -376349.08    2369.8148    50909.244 
   49630    301.02175   -380222.76            0   -376298.91     -2374.72    51226.064 
   49640    300.08341   -380231.39            0   -376319.77    409.45734    51046.979 
   49650    294.56002   -380233.13            0   -376393.52    1819.7432    50954.961 
   49660     303.7447   -380221.69            0   -376262.35   -2497.2227    51245.869 
   49670    293.70892   -380251.03            0   -376422.51    1605.3821    50968.656 
   49680    308.09978   -380256.92            0   -376240.82    -234.1154      51095.8 
   49690    295.00099   -380259.21            0   -376413.85   -520.74316    51101.283 
   49700    299.34646    -380255.5            0   -376353.49    664.51434    51024.399 
   49710    302.86804   -380234.22            0   -376286.31   -440.73423    51097.781 
   49720    298.18692   -380216.46            0   -376329.57    70.773718    51058.334 
   49730    299.75543   -380198.66            0   -376291.33    110.24309    51052.838 
   49740    302.64798   -380184.61            0   -376239.57   -162.33982    51068.801 
   49750    296.14759   -380179.92            0   -376319.61    126.71872    51043.654 
   49760    295.49201   -380179.53            0   -376327.77   -41.534239    51054.034 
   49770    306.04188   -380185.31            0   -376196.03   -79.866923    51064.857 
   49780    295.69128   -380198.35            0   -376343.99    502.32298    51017.542 
   49790    302.40391   -380206.47            0   -376264.61   -814.10419     51104.18 
   49800    298.54688   -380223.93            0   -376332.35    687.75714    50996.923 
   49810    298.23093   -380223.18            0   -376335.72    451.90567    51007.167 
   49820    308.53253   -380196.33            0   -376174.58   -2367.9058    51200.625 
   49830     295.2626   -380194.05            0   -376345.27    3654.8403    50803.822 
   49840    304.42265   -380153.68            0    -376185.5   -2898.4391    51251.916 
   49850    299.40627   -380162.69            0    -376259.9    861.06714    51014.194 
   49860    301.99877   -380162.48            0    -376225.9    370.99007    51062.862 
   49870    299.28078    -380165.8            0   -376264.65   -728.45688     51144.19 
   49880    298.03958   -380180.93            0   -376295.96     867.5715    51046.455 
   49890    300.64795    -380184.7            0   -376265.73   -576.38808    51147.579 
   49900    297.06417   -380192.07            0   -376319.81   -403.85416    51137.116 
   49910     306.1159   -380203.48            0   -376213.24    2072.5572    50984.365 
   49920    292.10239   -380189.27            0   -376381.69    -2985.856     51303.36 
   49930    305.55066   -380222.05            0   -376239.17    1576.5539    51004.479 
   49940    296.28946   -380239.64            0   -376377.48    874.31905    51022.886 
   49950    300.00174   -380238.35            0    -376327.8   -2434.1167    51215.992 
   49960     299.7019   -380254.59            0   -376347.95    2132.5968    50890.029 
   49970    295.65062   -380229.13            0    -376375.3   -615.82088    51033.989 
   49980    303.40846   -380205.99            0   -376251.03   -352.91536    50990.165 
   49990    298.96131   -380191.94            0   -376294.95    589.76408    50889.321 
   50000    302.97739   -380185.36            0   -376236.02   -618.51616    50931.567 
Loop time of 16247.6 on 1 procs for 50000 steps with 4374 atoms

Performance: 0.019 ns/day, 1289.495 hours/ns, 3.077 timesteps/s
98.2% CPU use with 1 MPI tasks x 1 OpenMP threads

MPI task timing breakdown:
Section |  min time  |  avg time  |  max time  |%varavg| %total
---------------------------------------------------------------
Pair    | 10204      | 10204      | 10204      |   0.0 | 62.80
Neigh   | 443.88     | 443.88     | 443.88     |   0.0 |  2.73
Comm    | 4.4905     | 4.4905     | 4.4905     |   0.0 |  0.03
Output  | 2.2565     | 2.2565     | 2.2565     |   0.0 |  0.01
Modify  | 5592.4     | 5592.4     | 5592.4     |   0.0 | 34.42
Other   |            | 0.8825     |            |       |  0.01

Nlocal:    4374 ave 4374 max 4374 min
Histogram: 1 0 0 0 0 0 0 0 0 0
Nghost:    15344 ave 15344 max 15344 min
Histogram: 1 0 0 0 0 0 0 0 0 0
Neighs:    1.81188e+06 ave 1.81188e+06 max 1.81188e+06 min
Histogram: 1 0 0 0 0 0 0 0 0 0

Total # of neighbors = 1811880
Ave neighs/atom = 414.239
Neighbor list builds = 5000
Dangerous builds not checked

Please see the log.cite file for references relevant to this simulation

Total wall time: 4:30:49
